ITEM: TIMESTEP
100000
ITEM: NUMBER OF ATOMS
400
ITEM: BOX BOUNDS pp pp pp
0.0000000000000000e+00 2.0000000000000000e+01
0.0000000000000000e+00 2.0000000000000000e+01
-5.0000000000000000e-01 5.0000000000000000e-01
ITEM: ATOMS id type xs ys zs
259 1 0.014747 0.0414867 0.5
276 1 0.0593368 0.00637215 0.5
69 1 0.102816 0.0294404 0.5
376 1 0.0672429 0.0642649 0.5
98 1 0.0243543 0.0948394 0.5
326 1 0.0745488 0.118336 0.5
301 1 0.113815 0.0852046 0.5
97 1 0.0334158 0.154019 0.5
364 1 0.117722 0.138862 0.5
115 1 0.0381601 0.202982 0.5
344 1 0.0790377 0.175851 0.5
361 1 0.0818517 0.223552 0.5
80 1 0.050733 0.259573 0.5
314 1 0.114497 0.289348 0.5
279 1 0.0168194 0.297332 0.5
214 1 0.061502 0.31812 0.5
246 1 0.0221292 0.347929 0.5
184 1 0.0728876 0.368007 0.5
153 1 0.115328 0.335577 0.5
111 1 0.023285 0.395958 0.5
231 1 0.114725 0.390173 0.5
242 1 0.0337151 0.451295 0.5
62 1 0.0744595 0.417378 0.5
400 1 0.0811316 0.469999 0.5
106 1 0.0413219 0.503268 0.5
260 1 0.00425429 0.534996 0.5
291 1 0.0877544 0.525411 0.5
74 1 0.0516455 0.559008 0.5
56 1 0.0997749 0.581372 0.5
20 1 0.0176291 0.597649 0.5
120 1 0.0645019 0.618061 0.5
35 1 0.0157455 0.652532 0.5
8 1 0.0671921 0.665545 0.5
39 1 0.114992 0.630969 0.5
125 1 0.0312607 0.699336 0.5
123 1 0.124124 0.684176 0.5
38 1 0.075734 0.716724 0.5
392 1 0.0348723 0.752814 0.5
139 1 0.0850318 0.764502 0.5
397 1 0.0328394 0.800209 0.5
385 1 0.0831314 0.812188 0.5
325 1 0.0351512 0.85062 0.5
161 1 0.0840379 0.862891 0.5
303 1 0.0456642 0.897503 0.5
197 1 0.0912452 0.909084 0.5
391 1 0.0111057 0.937807 0.5
190 1 0.0572793 0.950539 0.5
337 1 0.0135209 0.990214 0.5
306 1 0.0992486 0.975503 0.5
375 1 0.144092 0.0011345 0.5
171 1 0.188871 0.0232448 0.5
347 1 0.236866 0.0411495 0.5
188 1 0.145962 0.0517753 0.5
289 1 0.200258 0.0724315 0.5
141 1 0.158559 0.107114 0.5
359 1 0.205311 0.121767 0.5
48 1 0.249022 0.0878871 0.5
232 1 0.168929 0.157438 0.5
280 1 0.131058 0.187895 0.5
176 1 0.17859 0.207768 0.5
77 1 0.223527 0.178483 0.5
309 1 0.143772 0.246442 0.5
374 1 0.221635 0.228012 0.5
6 1 0.204818 0.279912 0.5
203 1 0.160495 0.302492 0.5
85 1 0.205216 0.33046 0.5
275 1 0.167433 0.359339 0.5
60 1 0.166223 0.410408 0.5
18 1 0.218089 0.378619 0.5
355 1 0.126244 0.439944 0.5
137 1 0.221814 0.427241 0.5
286 1 0.133842 0.493053 0.5
181 1 0.1751 0.460005 0.5
200 1 0.224265 0.47792 0.5
238 1 0.13521 0.541212 0.5
205 1 0.177677 0.51417 0.5
257 1 0.227937 0.527115 0.5
240 1 0.180972 0.562506 0.5
66 1 0.235508 0.576276 0.5
348 1 0.146234 0.594781 0.5
251 1 0.199058 0.608742 0.5
152 1 0.163035 0.647161 0.5
278 1 0.21048 0.655933 0.5
170 1 0.173925 0.696399 0.5
151 1 0.22269 0.702745 0.5
165 1 0.131993 0.734139 0.5
130 1 0.129659 0.788378 0.5
182 1 0.176797 0.750112 0.5
196 1 0.219912 0.774832 0.5
210 1 0.176229 0.803818 0.5
156 1 0.219703 0.828202 0.5
247 1 0.130675 0.838325 0.5
10 1 0.178671 0.864609 0.5
329 1 0.140514 0.890312 0.5
362 1 0.185895 0.915108 0.5
304 1 0.22573 0.882949 0.5
300 1 0.138402 0.941644 0.5
334 1 0.228494 0.939713 0.5
7 1 0.183099 0.963343 0.5
75 1 0.225815 0.987353 0.5
299 1 0.289979 0.0117985 0.5
394 1 0.350084 0.030372 0.5
100 1 0.286066 0.0572823 0.5
101 1 0.293265 0.112683 0.5
112 1 0.335963 0.0838502 0.5
99 1 0.25529 0.14107 0.5
315 1 0.336002 0.138806 0.5
294 1 0.265522 0.205852 0.5
58 1 0.303024 0.176875 0.5
34 1 0.342124 0.207157 0.5
133 1 0.293192 0.244404 0.5
44 1 0.25966 0.281021 0.5
367 1 0.340004 0.283299 0.5
256 1 0.299739 0.309536 0.5
23 1 0.34664 0.332471 0.5
134 1 0.256377 0.345851 0.5
102 1 0.30629 0.359587 0.5
284 1 0.268379 0.394772 0.5
357 1 0.345484 0.385115 0.5
328 1 0.266133 0.448266 0.5
393 1 0.310685 0.420924 0.5
124 1 0.360866 0.432717 0.5
340 1 0.27898 0.493593 0.5
368 1 0.326018 0.472462 0.5
233 1 0.373687 0.479395 0.5
27 1 0.316575 0.525848 0.5
49 1 0.365836 0.525765 0.5
292 1 0.278387 0.553784 0.5
198 1 0.339586 0.566866 0.5
167 1 0.29298 0.599279 0.5
396 1 0.339252 0.615478 0.5
192 1 0.252183 0.630413 0.5
132 1 0.302152 0.645897 0.5
332 1 0.273175 0.688768 0.5
342 1 0.348277 0.668715 0.5
194 1 0.267191 0.741639 0.5
324 1 0.311338 0.716958 0.5
117 1 0.358189 0.721245 0.5
384 1 0.307697 0.76593 0.5
268 1 0.355254 0.785981 0.5
37 1 0.265682 0.805687 0.5
258 1 0.315355 0.815961 0.5
191 1 0.26535 0.855404 0.5
218 1 0.314992 0.863814 0.5
267 1 0.362337 0.848097 0.5
12 1 0.268843 0.907634 0.5
105 1 0.351101 0.896242 0.5
336 1 0.315252 0.935677 0.5
323 1 0.365846 0.944729 0.5
270 1 0.274436 0.964459 0.5
71 1 0.335456 0.980234 0.5
339 1 0.433083 0.0328189 0.5
212 1 0.497184 0.0173806 0.5
55 1 0.388863 0.0573371 0.5
228 1 0.474041 0.0593232 0.5
185 1 0.380832 0.108136 0.5
104 1 0.429276 0.0866596 0.5
202 1 0.471192 0.115488 0.5
40 1 0.419526 0.135192 0.5
63 1 0.474447 0.163327 0.5
131 1 0.377406 0.171446 0.5
335 1 0.426813 0.190974 0.5
21 1 0.476085 0.216157 0.5
183 1 0.378806 0.25461 0.5
253 1 0.439101 0.259429 0.5
189 1 0.491141 0.27235 0.5
372 1 0.386612 0.304491 0.5
224 1 0.435164 0.314666 0.5
116 1 0.482218 0.326742 0.5
199 1 0.394452 0.361897 0.5
201 1 0.443648 0.368795 0.5
122 1 0.407616 0.414342 0.5
265 1 0.45976 0.413525 0.5
146 1 0.495597 0.378613 0.5
61 1 0.421025 0.459187 0.5
241 1 0.468636 0.467146 0.5
298 1 0.42046 0.508948 0.5
52 1 0.468811 0.518904 0.5
302 1 0.384128 0.583329 0.5
310 1 0.430124 0.559829 0.5
50 1 0.479212 0.568378 0.5
178 1 0.433268 0.607761 0.5
91 1 0.383076 0.635772 0.5
297 1 0.42808 0.657326 0.5
32 1 0.480814 0.627017 0.5
5 1 0.394849 0.689496 0.5
290 1 0.453056 0.698621 0.5
343 1 0.498584 0.673256 0.5
143 1 0.402909 0.743155 0.5
46 1 0.407586 0.790774 0.5
90 1 0.454826 0.753241 0.5
319 1 0.454876 0.804519 0.5
59 1 0.410038 0.841379 0.5
65 1 0.456492 0.858483 0.5
107 1 0.499659 0.839284 0.5
277 1 0.402871 0.903855 0.5
215 1 0.489746 0.89322 0.5
19 1 0.447811 0.918964 0.5
4 1 0.420168 0.956564 0.5
213 1 0.487832 0.942313 0.5
26 1 0.384856 0.995447 0.5
226 1 0.456468 0.988761 0.5
380 1 0.561609 0.01082 0.5
269 1 0.532305 0.0536396 0.5
216 1 0.580039 0.0590454 0.5
387 1 0.515948 0.0984217 0.5
245 1 0.565364 0.111837 0.5
162 1 0.615617 0.0973832 0.5
225 1 0.530816 0.150162 0.5
263 1 0.580224 0.160232 0.5
262 1 0.527578 0.204924 0.5
281 1 0.615835 0.193987 0.5
11 1 0.572038 0.220474 0.5
95 1 0.615519 0.244451 0.5
150 1 0.536579 0.255849 0.5
273 1 0.57416 0.283889 0.5
207 1 0.52993 0.306075 0.5
68 1 0.601722 0.322812 0.5
211 1 0.551392 0.348755 0.5
271 1 0.594547 0.371698 0.5
321 1 0.549816 0.402336 0.5
93 1 0.504401 0.431307 0.5
30 1 0.557065 0.451717 0.5
244 1 0.606862 0.417146 0.5
148 1 0.52436 0.485735 0.5
248 1 0.608227 0.471287 0.5
175 1 0.520134 0.532532 0.5
144 1 0.571053 0.503842 0.5
47 1 0.618274 0.523065 0.5
351 1 0.567878 0.554223 0.5
349 1 0.622292 0.572493 0.5
312 1 0.531547 0.592508 0.5
43 1 0.581643 0.606378 0.5
341 1 0.541487 0.642882 0.5
229 1 0.585704 0.66538 0.5
87 1 0.624292 0.626353 0.5
305 1 0.545345 0.691539 0.5
261 1 0.502399 0.720426 0.5
172 1 0.56661 0.74969 0.5
84 1 0.602923 0.710347 0.5
350 1 0.518597 0.764186 0.5
195 1 0.618533 0.75988 0.5
86 1 0.542168 0.817346 0.5
92 1 0.587276 0.797916 0.5
51 1 0.539375 0.867825 0.5
179 1 0.596752 0.853224 0.5
155 1 0.586718 0.908121 0.5
388 1 0.532714 0.922416 0.5
249 1 0.575069 0.957865 0.5
126 1 0.624758 0.943164 0.5
382 1 0.523706 0.976262 0.5
140 1 0.624418 0.994834 0.5
369 1 0.681552 0.0162825 0.5
119 1 0.73375 0.0355592 0.5
250 1 0.634739 0.0431046 0.5
29 1 0.69277 0.0666225 0.5
352 1 0.662512 0.104613 0.5
36 1 0.744276 0.0834709 0.5
366 1 0.709979 0.120065 0.5
266 1 0.627317 0.144199 0.5
395 1 0.682176 0.160129 0.5
128 1 0.717512 0.193049 0.5
193 1 0.662432 0.210579 0.5
204 1 0.736773 0.238546 0.5
285 1 0.687938 0.25093 0.5
399 1 0.727766 0.287238 0.5
307 1 0.64071 0.296381 0.5
252 1 0.687088 0.317673 0.5
89 1 0.748042 0.33261 0.5
121 1 0.643162 0.358048 0.5
22 1 0.698466 0.374871 0.5
227 1 0.658152 0.411254 0.5
67 1 0.747158 0.381594 0.5
28 1 0.702866 0.430622 0.5
320 1 0.657065 0.460795 0.5
103 1 0.709554 0.477844 0.5
379 1 0.666982 0.511632 0.5
272 1 0.719766 0.535271 0.5
136 1 0.674378 0.559899 0.5
370 1 0.680129 0.622651 0.5
330 1 0.719261 0.584147 0.5
208 1 0.729795 0.629473 0.5
15 1 0.649167 0.668875 0.5
377 1 0.69982 0.666671 0.5
296 1 0.746664 0.686657 0.5
114 1 0.661634 0.717059 0.5
3 1 0.712693 0.719115 0.5
346 1 0.691957 0.764189 0.5
363 1 0.651529 0.793548 0.5
365 1 0.702902 0.81423 0.5
282 1 0.746561 0.794325 0.5
237 1 0.645239 0.843238 0.5
254 1 0.688677 0.864221 0.5
177 1 0.740495 0.8431 0.5
287 1 0.631843 0.888645 0.5
358 1 0.672135 0.915758 0.5
221 1 0.725971 0.893913 0.5
174 1 0.713497 0.943539 0.5
239 1 0.668477 0.965434 0.5
243 1 0.724452 0.989244 0.5
160 1 0.821362 0.0185217 0.5
317 1 0.869013 0.0389595 0.5
53 1 0.785331 0.0516845 0.5
389 1 0.83416 0.077539 0.5
113 1 0.794283 0.11111 0.5
313 1 0.756416 0.145594 0.5
219 1 0.803981 0.160704 0.5
168 1 0.839577 0.126666 0.5
138 1 0.769776 0.195472 0.5
180 1 0.861455 0.182159 0.5
135 1 0.785718 0.243115 0.5
206 1 0.820609 0.210976 0.5
79 1 0.866042 0.233949 0.5
345 1 0.826735 0.26969 0.5
57 1 0.787729 0.297635 0.5
149 1 0.831709 0.318291 0.5
163 1 0.794894 0.352783 0.5
327 1 0.843462 0.374545 0.5
217 1 0.793624 0.402174 0.5
381 1 0.756662 0.442857 0.5
236 1 0.838132 0.423491 0.5
354 1 0.806998 0.459773 0.5
54 1 0.854138 0.481458 0.5
222 1 0.757659 0.500435 0.5
173 1 0.817024 0.518337 0.5
283 1 0.864703 0.531813 0.5
169 1 0.768415 0.548136 0.5
316 1 0.813455 0.56914 0.5
45 1 0.864285 0.580598 0.5
318 1 0.774552 0.602908 0.5
353 1 0.821622 0.622271 0.5
288 1 0.785426 0.651066 0.5
383 1 0.86689 0.646667 0.5
129 1 0.832731 0.680261 0.5
9 1 0.756452 0.73778 0.5
17 1 0.795912 0.710829 0.5
360 1 0.83445 0.742172 0.5
157 1 0.796068 0.768714 0.5
33 1 0.790209 0.820172 0.5
308 1 0.843386 0.797342 0.5
1 1 0.832193 0.847093 0.5
118 1 0.772814 0.878185 0.5
24 1 0.85617 0.894094 0.5
322 1 0.769074 0.946325 0.5
154 1 0.81836 0.917691 0.5
25 1 0.861165 0.941406 0.5
331 1 0.776798 0.999793 0.5
96 1 0.816598 0.967688 0.5
159 1 0.866475 0.990512 0.5
295 1 0.912377 0.0159318 0.5
110 1 0.965715 0.0256652 0.5
209 1 0.929208 0.062972 0.5
386 1 0.976724 0.0750924 0.5
371 1 0.881781 0.0933209 0.5
166 1 0.937881 0.115492 0.5
88 1 0.891359 0.145219 0.5
220 1 0.98921 0.127672 0.5
108 1 0.909576 0.201098 0.5
264 1 0.947042 0.169942 0.5
186 1 0.991215 0.186231 0.5
94 1 0.952524 0.219025 0.5
274 1 0.999631 0.241589 0.5
255 1 0.914126 0.253358 0.5
145 1 0.875651 0.286439 0.5
398 1 0.964781 0.280137 0.5
127 1 0.925126 0.304997 0.5
390 1 0.973463 0.328351 0.5
147 1 0.887425 0.337889 0.5
41 1 0.931007 0.360201 0.5
164 1 0.887217 0.393903 0.5
31 1 0.976334 0.387592 0.5
83 1 0.890109 0.448539 0.5
223 1 0.934745 0.41864 0.5
78 1 0.985055 0.433109 0.5
158 1 0.900535 0.495479 0.5
76 1 0.941145 0.464898 0.5
109 1 0.985988 0.481598 0.5
333 1 0.949498 0.523033 0.5
82 1 0.908159 0.558308 0.5
73 1 0.965523 0.570568 0.5
42 1 0.908444 0.606253 0.5
235 1 0.959369 0.61945 0.5
187 1 0.914 0.663768 0.5
14 1 0.963945 0.673752 0.5
72 1 0.877656 0.709852 0.5
70 1 0.926099 0.713426 0.5
81 1 0.979669 0.723305 0.5
230 1 0.884298 0.757165 0.5
338 1 0.934521 0.767704 0.5
378 1 0.990499 0.776214 0.5
373 1 0.889128 0.809692 0.5
234 1 0.934033 0.82721 0.5
2 1 0.987156 0.829373 0.5
142 1 0.895099 0.859732 0.5
293 1 0.947568 0.874566 0.5
356 1 0.902843 0.91209 0.5
311 1 0.997075 0.879238 0.5
64 1 0.962847 0.919288 0.5
16 1 0.909925 0.964759 0.5
13 1 0.96268 0.977789 0.5
