ITEM: TIMESTEP
100000
ITEM: NUMBER OF ATOMS
400
ITEM: BOX BOUNDS pp pp pp
0.0000000000000000e+00 2.8284271247461902e+01
0.0000000000000000e+00 2.8284271247461902e+01
-7.0710678118654757e-01 7.0710678118654757e-01
ITEM: ATOMS id type xs ys zs
61 1 0.0741654 0.041911 0.5
13 1 0.0564147 0.0813899 0.5
351 1 0.102168 0.0624897 0.5
197 1 0.0199586 0.0175999 0.5
314 1 0.121546 0.0285689 0.5
149 1 -0.000725263 0.179184 0.5
93 1 0.00565869 0.138234 0.5
2 1 0.0429462 0.220328 0.5
30 1 0.0762161 0.152132 0.5
202 1 0.109746 0.233342 0.5
89 1 0.0921574 0.190932 0.5
56 1 -0.00110237 0.215906 0.5
181 1 0.0498744 0.130406 0.5
350 1 0.112229 0.136785 0.5
326 1 0.0432159 0.291476 0.5
234 1 0.0883463 0.269013 0.5
113 1 0.109432 0.352112 0.5
195 1 0.0263574 0.333061 0.5
161 1 0.122046 0.288652 0.5
167 1 0.116408 0.392972 0.5
332 1 0.107272 0.425943 0.5
223 1 0.0481217 0.422883 0.5
94 1 0.00690273 0.393595 0.5
266 1 0.0732619 0.448331 0.5
267 1 0.0692742 0.486121 0.5
137 1 0.012938 0.432606 0.5
54 1 0.0511067 0.514935 0.5
190 1 0.0385023 0.574406 0.5
129 1 0.113577 0.578463 0.5
372 1 0.0700355 0.55018 0.5
252 1 0.076714 0.60777 0.5
388 1 0.111382 0.512628 0.5
73 1 0.116454 0.62204 0.5
142 1 0.00178228 0.548194 0.5
90 1 0.0172042 0.501949 0.5
132 1 0.0587077 0.73231 0.5
217 1 0.0230792 0.666713 0.5
370 1 0.100412 0.69998 0.5
57 1 -0.000213893 0.727927 0.5
118 1 0.0468552 0.642584 0.5
398 1 0.0758998 0.842667 0.5
376 1 0.0376955 0.805298 0.5
37 1 0.0315847 0.866193 0.5
85 1 0.0741496 0.772966 0.5
121 1 0.033097 0.763627 0.5
207 1 0.124741 0.870707 0.5
65 1 0.119499 0.818473 0.5
184 1 0.0341456 0.925424 0.5
11 1 0.0629321 0.903584 0.5
139 1 0.101939 0.958874 0.5
249 1 0.0624136 0.986824 0.5
143 1 0.00115214 0.888227 0.5
381 1 0.108143 0.995562 0.5
235 1 0.150879 0.0990606 0.5
236 1 0.229759 0.010232 0.5
273 1 0.165083 0.037138 0.5
369 1 0.176877 0.0731636 0.5
352 1 0.222511 0.0880885 0.5
88 1 0.196986 0.108726 0.5
320 1 0.155423 0.133727 0.5
147 1 0.212426 0.141132 0.5
368 1 0.224482 0.185794 0.5
86 1 0.184615 0.161486 0.5
251 1 0.143718 0.17843 0.5
248 1 0.168044 0.218399 0.5
383 1 0.250247 0.13747 0.5
177 1 0.220361 0.238154 0.5
387 1 0.199921 0.364571 0.5
281 1 0.174029 0.300839 0.5
146 1 0.18505 0.256671 0.5
215 1 0.210556 0.299737 0.5
71 1 0.145048 0.253335 0.5
220 1 0.154549 0.4051 0.5
46 1 0.231648 0.435394 0.5
241 1 0.145411 0.460475 0.5
374 1 0.181557 0.489863 0.5
289 1 0.198752 0.420746 0.5
358 1 0.242072 0.568547 0.5
378 1 0.139067 0.542672 0.5
243 1 0.207751 0.611967 0.5
186 1 0.186742 0.562917 0.5
319 1 0.229078 0.517644 0.5
333 1 0.21616 0.645249 0.5
268 1 0.224559 0.696963 0.5
206 1 0.175883 0.647965 0.5
261 1 0.147732 0.709605 0.5
250 1 0.183957 0.725324 0.5
175 1 0.243128 0.727891 0.5
69 1 0.149778 0.742036 0.5
5 1 0.195055 0.814739 0.5
60 1 0.169348 0.771869 0.5
316 1 0.213743 0.769343 0.5
23 1 0.155869 0.812545 0.5
194 1 0.186886 0.859116 0.5
151 1 0.197647 0.906775 0.5
282 1 0.204427 0.944223 0.5
174 1 0.236102 0.922916 0.5
198 1 0.144469 0.910873 0.5
55 1 0.155622 0.953614 0.5
233 1 0.221067 0.978153 0.5
131 1 0.167105 0.987559 0.5
255 1 0.248809 0.88185 0.5
291 1 0.333671 0.0230496 0.5
196 1 0.288805 0.0655177 0.5
318 1 0.367438 0.0621698 0.5
294 1 0.264687 0.00376106 0.5
229 1 0.254333 0.0543601 0.5
228 1 0.366885 0.0241908 0.5
204 1 0.279879 0.118795 0.5
47 1 0.37415 0.114875 0.5
270 1 0.361375 0.186778 0.5
287 1 0.278826 0.163516 0.5
363 1 0.314314 0.228329 0.5
344 1 0.315785 0.136842 0.5
153 1 0.314098 0.192547 0.5
219 1 0.274817 0.23266 0.5
367 1 0.36682 0.147781 0.5
104 1 0.348223 0.246812 0.5
154 1 0.307262 0.374366 0.5
22 1 0.294617 0.33151 0.5
253 1 0.349867 0.322495 0.5
371 1 0.271138 0.297051 0.5
157 1 0.341223 0.283395 0.5
58 1 0.329381 0.401013 0.5
309 1 0.31694 0.467414 0.5
6 1 0.338405 0.439203 0.5
18 1 0.280529 0.478913 0.5
286 1 0.282841 0.437371 0.5
72 1 0.357479 0.377745 0.5
392 1 0.252865 0.383195 0.5
160 1 0.266346 0.512878 0.5
258 1 0.259089 0.605111 0.5
303 1 0.371631 0.567959 0.5
173 1 0.287202 0.573524 0.5
349 1 0.32816 0.564276 0.5
341 1 0.338063 0.516376 0.5
297 1 0.2966 0.710964 0.5
373 1 0.28652 0.64958 0.5
334 1 0.343572 0.670851 0.5
192 1 0.259325 0.678018 0.5
170 1 0.31875 0.628543 0.5
323 1 0.367782 0.705246 0.5
28 1 0.365465 0.631926 0.5
339 1 0.353215 0.795499 0.5
391 1 0.325143 0.834465 0.5
389 1 0.307488 0.774501 0.5
53 1 0.291104 0.832502 0.5
300 1 0.270123 0.796835 0.5
176 1 0.374389 0.75812 0.5
138 1 0.250335 0.7649 0.5
74 1 0.257753 0.949501 0.5
299 1 0.370355 0.933044 0.5
120 1 0.341752 0.915803 0.5
97 1 0.299687 0.98718 0.5
91 1 0.299886 0.879525 0.5
342 1 0.495318 0.0830904 0.5
156 1 0.415737 0.0660891 0.5
211 1 0.454869 0.0333685 0.5
380 1 0.458579 0.069359 0.5
12 1 0.384089 0.243555 0.5
112 1 0.439001 0.237455 0.5
330 1 0.421503 0.199653 0.5
122 1 0.461389 0.141317 0.5
293 1 0.420024 0.16358 0.5
275 1 0.469635 0.21345 0.5
52 1 0.416231 0.127294 0.5
182 1 0.49133 0.124625 0.5
27 1 0.422692 0.267645 0.5
338 1 0.46708 0.267122 0.5
108 1 0.412309 0.305131 0.5
347 1 0.483874 0.309134 0.5
278 1 0.439217 0.364711 0.5
115 1 0.470927 0.354023 0.5
259 1 0.377803 0.287071 0.5
42 1 0.423886 0.446477 0.5
163 1 0.459759 0.427901 0.5
311 1 0.408536 0.384443 0.5
317 1 0.459848 0.392885 0.5
263 1 0.434506 0.491339 0.5
19 1 0.475007 0.479407 0.5
152 1 0.378085 0.471868 0.5
76 1 0.406951 0.599422 0.5
166 1 0.472466 0.60886 0.5
82 1 0.469121 0.524902 0.5
254 1 0.423283 0.56546 0.5
1 1 0.421227 0.522472 0.5
41 1 0.460888 0.568632 0.5
77 1 0.393867 0.677863 0.5
79 1 0.414784 0.711294 0.5
390 1 0.456483 0.698932 0.5
262 1 0.474637 0.650162 0.5
212 1 0.418552 0.771324 0.5
230 1 0.486753 0.856028 0.5
169 1 0.451139 0.75686 0.5
95 1 0.485503 0.81784 0.5
366 1 0.381874 0.827254 0.5
102 1 0.498623 0.781188 0.5
17 1 0.382273 0.870993 0.5
353 1 0.477126 0.930881 0.5
29 1 0.420044 0.938316 0.5
307 1 0.452297 0.958482 0.5
222 1 0.472786 0.996493 0.5
96 1 0.407255 0.895652 0.5
31 1 0.389165 0.995623 0.5
213 1 0.495949 0.889006 0.5
397 1 0.615076 0.00302326 0.5
290 1 0.566814 0.0767632 0.5
78 1 0.529226 0.0720543 0.5
105 1 0.618851 0.0875689 0.5
395 1 0.576401 0.0118501 0.5
99 1 0.539931 0.115352 0.5
279 1 0.500874 0.0424396 0.5
384 1 0.541801 0.00461238 0.5
34 1 0.621196 0.0458872 0.5
16 1 0.596943 0.168425 0.5
155 1 0.529579 0.194984 0.5
43 1 0.55284 0.158319 0.5
183 1 0.56727 0.192079 0.5
274 1 0.508691 0.154377 0.5
396 1 0.502493 0.232937 0.5
302 1 0.581921 0.130583 0.5
305 1 0.599318 0.212974 0.5
159 1 0.518348 0.318755 0.5
123 1 0.619245 0.272868 0.5
106 1 0.548082 0.295609 0.5
114 1 0.540755 0.361706 0.5
348 1 0.512699 0.276023 0.5
81 1 0.583498 0.257615 0.5
35 1 0.514222 0.447276 0.5
193 1 0.585771 0.478246 0.5
103 1 0.563536 0.425831 0.5
124 1 0.544191 0.47656 0.5
191 1 0.605805 0.40778 0.5
70 1 0.502398 0.396489 0.5
21 1 0.509529 0.544209 0.5
221 1 0.575843 0.588431 0.5
158 1 0.600157 0.55808 0.5
310 1 0.547397 0.541708 0.5
119 1 0.563537 0.506721 0.5
277 1 0.514983 0.691361 0.5
346 1 0.591954 0.692362 0.5
48 1 0.550022 0.683727 0.5
187 1 0.536091 0.722838 0.5
116 1 0.59611 0.743601 0.5
40 1 0.513711 0.635755 0.5
67 1 0.61847 0.624996 0.5
296 1 0.534769 0.801482 0.5
9 1 0.570421 0.81297 0.5
328 1 0.55764 0.851761 0.5
127 1 0.595877 0.855367 0.5
276 1 0.520228 0.850686 0.5
62 1 0.60285 0.784946 0.5
107 1 0.558198 0.762138 0.5
214 1 0.621682 0.949515 0.5
164 1 0.558668 0.950072 0.5
14 1 0.603925 0.895261 0.5
59 1 0.570449 0.89956 0.5
38 1 0.678731 0.0665939 0.5
203 1 0.657566 0.104018 0.5
280 1 0.654017 0.0325048 0.5
308 1 0.72878 0.0939191 0.5
63 1 0.704482 0.145663 0.5
189 1 0.734102 0.176597 0.5
205 1 0.638775 0.245004 0.5
400 1 0.722744 0.215788 0.5
92 1 0.676417 0.23204 0.5
244 1 0.672499 0.158066 0.5
209 1 0.625626 0.151021 0.5
111 1 0.686471 0.313109 0.5
322 1 0.668925 0.27793 0.5
165 1 0.726566 0.314169 0.5
64 1 0.663392 0.362512 0.5
3 1 0.748503 0.265204 0.5
218 1 0.700288 0.255936 0.5
7 1 0.631035 0.335009 0.5
140 1 0.635051 0.455956 0.5
340 1 0.733569 0.437278 0.5
100 1 0.661356 0.412162 0.5
24 1 0.695633 0.434808 0.5
375 1 0.695864 0.394173 0.5
240 1 0.677056 0.466474 0.5
32 1 0.734835 0.390254 0.5
360 1 0.683305 0.579982 0.5
36 1 0.683718 0.505041 0.5
185 1 0.679366 0.541906 0.5
284 1 0.713257 0.555931 0.5
84 1 0.648165 0.581054 0.5
247 1 0.696631 0.643882 0.5
66 1 0.637215 0.729172 0.5
145 1 0.705074 0.67893 0.5
208 1 0.681316 0.720546 0.5
359 1 0.660257 0.652881 0.5
283 1 0.731177 0.63157 0.5
178 1 0.716044 0.866334 0.5
288 1 0.686264 0.837642 0.5
242 1 0.628495 0.832346 0.5
216 1 0.692283 0.787309 0.5
232 1 0.655759 0.803596 0.5
365 1 0.634578 0.762298 0.5
44 1 0.738669 0.754243 0.5
171 1 0.638843 0.916107 0.5
336 1 0.750089 0.907912 0.5
125 1 0.689512 0.927912 0.5
126 1 0.655066 0.959102 0.5
356 1 0.717352 0.955298 0.5
148 1 0.663472 0.9962 0.5
68 1 0.741052 0.998693 0.5
257 1 0.662967 0.876208 0.5
321 1 0.764023 0.0787189 0.5
324 1 0.860424 0.0667381 0.5
295 1 0.871648 0.0314236 0.5
237 1 0.805209 0.0923243 0.5
117 1 0.865624 0.119626 0.5
315 1 0.787508 0.0321963 0.5
239 1 0.784586 0.22297 0.5
264 1 0.815526 0.243588 0.5
45 1 0.848996 0.148255 0.5
109 1 0.781079 0.172109 0.5
260 1 0.807088 0.197788 0.5
329 1 0.871779 0.237208 0.5
301 1 0.765385 0.313886 0.5
306 1 0.850434 0.286078 0.5
357 1 0.792507 0.277159 0.5
110 1 0.785757 0.349295 0.5
8 1 0.802108 0.315268 0.5
362 1 0.846377 0.319435 0.5
312 1 0.867392 0.363949 0.5
304 1 0.815776 0.500429 0.5
245 1 0.77903 0.39985 0.5
188 1 0.853775 0.477496 0.5
231 1 0.818758 0.438636 0.5
393 1 0.748915 0.474396 0.5
355 1 0.780649 0.451375 0.5
162 1 0.870552 0.428985 0.5
210 1 0.839697 0.598499 0.5
172 1 0.814508 0.548355 0.5
200 1 0.862577 0.571985 0.5
238 1 0.791087 0.604974 0.5
224 1 0.867526 0.625437 0.5
98 1 0.783241 0.511883 0.5
134 1 0.754585 0.534238 0.5
33 1 0.756347 0.600398 0.5
256 1 0.784523 0.662301 0.5
128 1 0.836231 0.739205 0.5
50 1 0.823134 0.6357 0.5
135 1 0.793839 0.729369 0.5
10 1 0.755988 0.690501 0.5
343 1 0.778521 0.805527 0.5
80 1 0.832779 0.773998 0.5
4 1 0.777654 0.847627 0.5
325 1 0.855721 0.868284 0.5
26 1 0.783124 0.955148 0.5
168 1 0.820797 0.962533 0.5
394 1 0.804982 0.919329 0.5
272 1 0.853562 0.910559 0.5
298 1 0.781255 0.993819 0.5
265 1 0.962823 0.0993157 0.5
141 1 0.9406 0.0282224 0.5
83 1 0.979098 0.0073048 0.5
337 1 0.912268 0.104253 0.5
226 1 0.977691 0.0415198 0.5
15 1 0.934006 0.073544 0.5
386 1 0.931569 0.191217 0.5
150 1 0.946264 0.224182 0.5
20 1 0.906186 0.15171 0.5
51 1 0.955894 0.149273 0.5
271 1 0.88269 0.290014 0.5
179 1 0.995338 0.310496 0.5
382 1 0.914384 0.311701 0.5
201 1 0.96189 0.332022 0.5
361 1 0.949679 0.2859 0.5
87 1 0.992056 0.266293 0.5
75 1 0.960209 0.366603 0.5
180 1 0.912927 0.256694 0.5
227 1 0.93097 0.490746 0.5
144 1 0.911424 0.375658 0.5
25 1 0.987619 0.464072 0.5
377 1 0.888486 0.468108 0.5
39 1 0.934695 0.413363 0.5
364 1 0.951689 0.562568 0.5
199 1 0.956686 0.611388 0.5
354 1 0.907836 0.538078 0.5
379 1 0.90584 0.582342 0.5
292 1 0.974233 0.505019 0.5
130 1 0.962951 0.743856 0.5
136 1 0.991057 0.690847 0.5
345 1 0.893151 0.674072 0.5
399 1 0.898824 0.738635 0.5
313 1 0.996126 0.633915 0.5
285 1 0.880904 0.823417 0.5
385 1 0.938822 0.828997 0.5
331 1 0.95119 0.795824 0.5
49 1 0.985259 0.776601 0.5
101 1 0.908849 0.848683 0.5
269 1 0.964919 0.880328 0.5
246 1 0.963072 0.926872 0.5
225 1 0.891061 0.979519 0.5
133 1 0.894404 0.938616 0.5
335 1 0.938709 0.969165 0.5
327 1 0.982103 0.962103 0.5
