ITEM: TIMESTEP
100000
ITEM: NUMBER OF ATOMS
400
ITEM: BOX BOUNDS pp pp pp
0.0000000000000000e+00 2.0000000000000000e+01
0.0000000000000000e+00 2.0000000000000000e+01
-5.0000000000000000e-01 5.0000000000000000e-01
ITEM: ATOMS id type xs ys zs
42 1 0.0237539 0.0330282 0.5
178 1 0.0784288 0.0275318 0.5
308 1 0.108696 0.113006 0.5
52 1 0.0703945 0.0794068 0.5
197 1 0.114183 0.0610813 0.5
277 1 0.0158367 0.0878051 0.5
393 1 0.125187 0.00834644 0.5
280 1 0.0743129 0.17793 0.5
383 1 0.0467118 0.21974 0.5
218 1 0.0202416 0.178662 0.5
33 1 0.00100796 0.230425 0.5
305 1 0.104541 0.227408 0.5
142 1 0.000892228 0.135378 0.5
278 1 0.0579468 0.128472 0.5
344 1 0.0318483 0.268238 0.5
101 1 0.0809016 0.276674 0.5
360 1 0.0528392 0.323128 0.5
257 1 0.0742032 0.365163 0.5
176 1 0.108764 0.315052 0.5
180 1 0.0136148 0.3569 0.5
192 1 0.0261745 0.479783 0.5
163 1 0.0678845 0.452064 0.5
371 1 0.102478 0.405178 0.5
221 1 0.107245 0.49073 0.5
225 1 0.0424707 0.409487 0.5
109 1 0.001903 0.435306 0.5
366 1 0.0496953 0.561809 0.5
269 1 0.0149715 0.528579 0.5
68 1 0.0337653 0.618147 0.5
16 1 0.0894773 0.59184 0.5
378 1 0.105451 0.537323 0.5
222 1 0.0612459 0.514459 0.5
332 1 0.00150249 0.5801 0.5
84 1 0.0201515 0.665723 0.5
287 1 0.0682654 0.655301 0.5
368 1 0.101928 0.73587 0.5
199 1 0.0620559 0.70431 0.5
319 1 0.106734 0.682729 0.5
292 1 0.0182926 0.714999 0.5
382 1 0.11674 0.632488 0.5
141 1 0.0364048 0.802682 0.5
152 1 0.0230168 0.849488 0.5
256 1 0.0945069 0.784095 0.5
299 1 0.0709606 0.834632 0.5
137 1 0.124342 0.821888 0.5
115 1 0.00334589 0.762605 0.5
312 1 0.0577935 0.752627 0.5
248 1 0.101163 0.873804 0.5
294 1 0.0350812 0.986744 0.5
341 1 0.0553858 0.938396 0.5
47 1 0.102297 0.921101 0.5
259 1 0.0558868 0.889111 0.5
283 1 0.0923407 0.968356 0.5
353 1 0.00417905 0.892911 0.5
91 1 0.00675844 0.945798 0.5
267 1 0.161094 0.044424 0.5
15 1 0.215543 0.0277395 0.5
346 1 0.204139 0.0741508 0.5
323 1 0.160646 0.0937949 0.5
367 1 0.244234 0.112168 0.5
28 1 0.197463 0.125552 0.5
285 1 0.151973 0.229667 0.5
116 1 0.178105 0.186514 0.5
263 1 0.225331 0.165764 0.5
271 1 0.209516 0.219869 0.5
336 1 0.152675 0.141557 0.5
159 1 0.127377 0.184443 0.5
26 1 0.130665 0.27299 0.5
153 1 0.240254 0.259361 0.5
209 1 0.212272 0.318324 0.5
363 1 0.160885 0.315914 0.5
289 1 0.187582 0.363819 0.5
205 1 0.182919 0.267915 0.5
190 1 0.135269 0.365493 0.5
123 1 0.244109 0.360351 0.5
11 1 0.161476 0.486749 0.5
82 1 0.207265 0.448952 0.5
253 1 0.167693 0.408674 0.5
352 1 0.126751 0.446489 0.5
73 1 0.219044 0.400512 0.5
66 1 0.236682 0.557796 0.5
246 1 0.194729 0.58165 0.5
273 1 0.237027 0.606245 0.5
193 1 0.138532 0.582975 0.5
309 1 0.167198 0.541515 0.5
223 1 0.165287 0.623483 0.5
8 1 0.206597 0.507888 0.5
53 1 0.206686 0.698492 0.5
327 1 0.165056 0.67008 0.5
214 1 0.208112 0.647475 0.5
79 1 0.144836 0.714291 0.5
191 1 0.243804 0.738041 0.5
388 1 0.183079 0.809215 0.5
146 1 0.160246 0.858677 0.5
121 1 0.231215 0.836596 0.5
157 1 0.142003 0.769706 0.5
96 1 0.233591 0.786673 0.5
196 1 0.19112 0.760352 0.5
43 1 0.153897 0.91067 0.5
185 1 0.138173 0.955943 0.5
251 1 0.230194 0.976688 0.5
295 1 0.207504 0.88336 0.5
275 1 0.206582 0.933601 0.5
236 1 0.178729 0.995518 0.5
76 1 0.292025 0.0983049 0.5
333 1 0.311044 0.0372141 0.5
272 1 0.358813 0.0371747 0.5
133 1 0.266495 0.0162833 0.5
27 1 0.335972 0.0800488 0.5
56 1 0.25402 0.0626612 0.5
359 1 0.278313 0.165765 0.5
348 1 0.318405 0.140871 0.5
97 1 0.354713 0.187899 0.5
59 1 0.308853 0.201644 0.5
315 1 0.337839 0.244273 0.5
88 1 0.258938 0.20983 0.5
250 1 0.366299 0.140571 0.5
397 1 0.344793 0.330164 0.5
345 1 0.265724 0.30796 0.5
7 1 0.296867 0.347803 0.5
168 1 0.316005 0.287672 0.5
61 1 0.368895 0.281154 0.5
379 1 0.289278 0.250819 0.5
198 1 0.279109 0.394046 0.5
150 1 0.31139 0.485673 0.5
21 1 0.313637 0.434629 0.5
147 1 0.36008 0.463216 0.5
303 1 0.271151 0.45706 0.5
17 1 0.332463 0.384422 0.5
396 1 0.368641 0.415906 0.5
181 1 0.28555 0.586829 0.5
301 1 0.350921 0.51884 0.5
19 1 0.298587 0.536126 0.5
4 1 0.331498 0.566077 0.5
392 1 0.324807 0.616563 0.5
325 1 0.371537 0.602545 0.5
120 1 0.255698 0.505356 0.5
354 1 0.368721 0.65114 0.5
237 1 0.307319 0.716882 0.5
39 1 0.31511 0.668401 0.5
49 1 0.35707 0.699338 0.5
23 1 0.258701 0.690402 0.5
172 1 0.275207 0.639599 0.5
320 1 0.365844 0.843405 0.5
380 1 0.310724 0.850079 0.5
270 1 0.283826 0.763097 0.5
118 1 0.324429 0.802287 0.5
44 1 0.277782 0.812085 0.5
98 1 0.264576 0.870104 0.5
149 1 0.35066 0.756445 0.5
110 1 0.284294 0.971171 0.5
234 1 0.302946 0.902919 0.5
188 1 0.337597 0.938882 0.5
57 1 0.354729 0.891384 0.5
139 1 0.25661 0.928027 0.5
335 1 0.330491 0.992542 0.5
140 1 0.458988 0.0357911 0.5
9 1 0.410146 0.0443918 0.5
86 1 0.438315 0.0898257 0.5
170 1 0.389811 0.092397 0.5
111 1 0.476907 0.121315 0.5
183 1 0.491188 0.0732388 0.5
46 1 0.439087 0.226486 0.5
83 1 0.464207 0.170241 0.5
321 1 0.409784 0.18105 0.5
386 1 0.392158 0.227114 0.5
37 1 0.426747 0.135676 0.5
340 1 0.495161 0.222434 0.5
302 1 0.420527 0.269397 0.5
103 1 0.484259 0.369493 0.5
106 1 0.396255 0.319174 0.5
337 1 0.465168 0.32083 0.5
99 1 0.435163 0.357928 0.5
1 1 0.47046 0.272903 0.5
29 1 0.38852 0.370369 0.5
334 1 0.458597 0.477174 0.5
329 1 0.463958 0.430621 0.5
206 1 0.418743 0.408426 0.5
70 1 0.408214 0.456556 0.5
131 1 0.43456 0.536167 0.5
228 1 0.387671 0.555269 0.5
184 1 0.423289 0.587029 0.5
307 1 0.480887 0.56724 0.5
374 1 0.490246 0.518997 0.5
135 1 0.462583 0.611293 0.5
94 1 0.397473 0.50402 0.5
389 1 0.446695 0.73104 0.5
60 1 0.490588 0.714178 0.5
260 1 0.410742 0.690103 0.5
154 1 0.458165 0.670447 0.5
387 1 0.413613 0.635876 0.5
362 1 0.39718 0.739185 0.5
127 1 0.49989 0.642527 0.5
254 1 0.47571 0.829636 0.5
145 1 0.482918 0.781574 0.5
376 1 0.417075 0.835601 0.5
247 1 0.432226 0.779571 0.5
207 1 0.383768 0.797359 0.5
245 1 0.478977 0.970081 0.5
208 1 0.441754 0.937509 0.5
238 1 0.42981 0.986578 0.5
51 1 0.407296 0.886991 0.5
169 1 0.391241 0.945161 0.5
324 1 0.453714 0.875669 0.5
6 1 0.495547 0.924366 0.5
264 1 0.379459 0.996093 0.5
293 1 0.529474 0.112769 0.5
113 1 0.584492 0.104916 0.5
212 1 0.537382 0.0551751 0.5
202 1 0.596326 0.0445723 0.5
365 1 0.504625 0.00893354 0.5
117 1 0.556368 0.00781225 0.5
158 1 0.54538 0.200894 0.5
89 1 0.565292 0.149492 0.5
74 1 0.516772 0.160641 0.5
369 1 0.598671 0.189649 0.5
284 1 0.5823 0.237221 0.5
314 1 0.620343 0.147863 0.5
182 1 0.596566 0.329275 0.5
22 1 0.616849 0.284592 0.5
377 1 0.550566 0.34465 0.5
339 1 0.562755 0.292785 0.5
102 1 0.51102 0.303194 0.5
390 1 0.533107 0.253702 0.5
50 1 0.509335 0.412901 0.5
148 1 0.602848 0.430269 0.5
210 1 0.55342 0.446511 0.5
87 1 0.556268 0.395358 0.5
2 1 0.5995 0.477531 0.5
162 1 0.507997 0.467028 0.5
316 1 0.619562 0.381897 0.5
370 1 0.532896 0.548777 0.5
400 1 0.622262 0.582863 0.5
62 1 0.601653 0.532608 0.5
227 1 0.577047 0.571959 0.5
343 1 0.531029 0.598061 0.5
18 1 0.555755 0.500853 0.5
240 1 0.570732 0.725732 0.5
63 1 0.532843 0.689828 0.5
349 1 0.596243 0.683517 0.5
326 1 0.548633 0.64451 0.5
282 1 0.595802 0.627195 0.5
36 1 0.564792 0.788222 0.5
286 1 0.617745 0.766091 0.5
213 1 0.603404 0.814966 0.5
167 1 0.560481 0.839832 0.5
373 1 0.602904 0.867173 0.5
242 1 0.520217 0.81117 0.5
143 1 0.526168 0.749807 0.5
358 1 0.513306 0.868148 0.5
350 1 0.616914 0.922011 0.5
58 1 0.528027 0.965852 0.5
25 1 0.573246 0.941032 0.5
30 1 0.60254 0.981863 0.5
114 1 0.561414 0.892795 0.5
92 1 0.664961 0.0567242 0.5
24 1 0.629892 0.0978039 0.5
95 1 0.70396 0.0206364 0.5
179 1 0.716528 0.0732094 0.5
93 1 0.641798 0.00912743 0.5
372 1 0.683009 0.228747 0.5
361 1 0.629558 0.235174 0.5
347 1 0.707551 0.180573 0.5
291 1 0.74392 0.215747 0.5
300 1 0.654425 0.187602 0.5
274 1 0.670836 0.138764 0.5
151 1 0.724587 0.125558 0.5
171 1 0.715043 0.263483 0.5
230 1 0.732081 0.359289 0.5
200 1 0.644794 0.33232 0.5
119 1 0.703472 0.312981 0.5
71 1 0.666214 0.274903 0.5
232 1 0.682212 0.362356 0.5
364 1 0.749603 0.309063 0.5
40 1 0.660707 0.41497 0.5
243 1 0.642659 0.460378 0.5
328 1 0.696777 0.454331 0.5
13 1 0.717773 0.408493 0.5
5 1 0.742574 0.493452 0.5
104 1 0.689898 0.502937 0.5
216 1 0.699104 0.590998 0.5
81 1 0.67124 0.55269 0.5
201 1 0.721689 0.540269 0.5
161 1 0.656924 0.613859 0.5
317 1 0.64253 0.509094 0.5
226 1 0.716231 0.740809 0.5
136 1 0.688475 0.651346 0.5
268 1 0.681236 0.703127 0.5
177 1 0.738549 0.687417 0.5
55 1 0.639655 0.659799 0.5
126 1 0.745015 0.638887 0.5
262 1 0.63193 0.718181 0.5
124 1 0.658959 0.805087 0.5
239 1 0.705827 0.797132 0.5
64 1 0.651287 0.856656 0.5
35 1 0.709061 0.856038 0.5
45 1 0.668764 0.755028 0.5
318 1 0.748442 0.828192 0.5
112 1 0.662423 0.955238 0.5
204 1 0.719115 0.913789 0.5
252 1 0.71004 0.965701 0.5
156 1 0.668522 0.908648 0.5
187 1 0.823198 0.0537404 0.5
306 1 0.809575 0.100354 0.5
355 1 0.751004 0.0354176 0.5
357 1 0.761736 0.0877179 0.5
338 1 0.796812 0.0164332 0.5
65 1 0.860744 0.0840568 0.5
304 1 0.825215 0.247744 0.5
77 1 0.802001 0.148452 0.5
107 1 0.847187 0.195457 0.5
122 1 0.793843 0.210291 0.5
34 1 0.851251 0.13782 0.5
375 1 0.754402 0.168175 0.5
220 1 0.871632 0.235172 0.5
132 1 0.811247 0.291102 0.5
203 1 0.863822 0.282835 0.5
310 1 0.782309 0.34623 0.5
231 1 0.830554 0.336019 0.5
144 1 0.772237 0.260897 0.5
215 1 0.856404 0.422922 0.5
356 1 0.848706 0.469403 0.5
395 1 0.790907 0.480836 0.5
166 1 0.808771 0.431995 0.5
342 1 0.768457 0.394353 0.5
129 1 0.817552 0.384295 0.5
105 1 0.753487 0.445339 0.5
155 1 0.872761 0.376566 0.5
265 1 0.770013 0.534864 0.5
296 1 0.831807 0.520092 0.5
32 1 0.762913 0.58733 0.5
189 1 0.809257 0.565537 0.5
394 1 0.862314 0.555332 0.5
351 1 0.852873 0.606619 0.5
130 1 0.80105 0.624163 0.5
195 1 0.769359 0.729189 0.5
311 1 0.837563 0.660316 0.5
69 1 0.783886 0.673717 0.5
3 1 0.816955 0.707994 0.5
125 1 0.871021 0.702538 0.5
164 1 0.853723 0.747583 0.5
90 1 0.842217 0.80856 0.5
261 1 0.749728 0.777325 0.5
391 1 0.808552 0.852055 0.5
241 1 0.78979 0.806003 0.5
399 1 0.807293 0.761699 0.5
276 1 0.861447 0.896602 0.5
258 1 0.812675 0.907025 0.5
194 1 0.854268 0.947424 0.5
14 1 0.805574 0.966572 0.5
219 1 0.769165 0.929065 0.5
249 1 0.760213 0.984196 0.5
20 1 0.845889 0.998241 0.5
229 1 0.767851 0.879523 0.5
41 1 0.936767 0.0172002 0.5
67 1 0.921861 0.06756 0.5
85 1 0.972805 0.057754 0.5
322 1 0.957667 0.112264 0.5
211 1 0.899279 0.123885 0.5
174 1 0.883369 0.0311939 0.5
31 1 0.892452 0.170104 0.5
266 1 0.937863 0.156269 0.5
173 1 0.96771 0.196742 0.5
160 1 0.919842 0.213669 0.5
313 1 0.940521 0.298826 0.5
38 1 0.959798 0.344438 0.5
330 1 0.883662 0.325641 0.5
186 1 0.989325 0.308723 0.5
235 1 0.91116 0.259981 0.5
108 1 0.95892 0.255459 0.5
10 1 0.930459 0.385961 0.5
385 1 0.978027 0.392239 0.5
281 1 0.976747 0.492349 0.5
381 1 0.953098 0.43712 0.5
297 1 0.905979 0.441383 0.5
298 1 0.927649 0.490188 0.5
398 1 0.910501 0.547307 0.5
134 1 0.967339 0.540859 0.5
75 1 0.906363 0.600825 0.5
290 1 0.952776 0.587435 0.5
233 1 0.88095 0.506661 0.5
331 1 0.939219 0.648163 0.5
175 1 0.973823 0.685379 0.5
217 1 0.924427 0.6955 0.5
128 1 0.906349 0.738841 0.5
279 1 0.956733 0.735515 0.5
138 1 0.886773 0.657441 0.5
244 1 0.98673 0.624835 0.5
48 1 0.886931 0.786117 0.5
224 1 0.939285 0.780498 0.5
80 1 0.968273 0.858454 0.5
12 1 0.919328 0.825077 0.5
100 1 0.989222 0.810029 0.5
54 1 0.876425 0.844243 0.5
72 1 0.918002 0.873799 0.5
165 1 0.958968 0.910628 0.5
288 1 0.901303 0.981611 0.5
255 1 0.908277 0.926918 0.5
78 1 0.952438 0.958647 0.5
384 1 0.98648 0.994042 0.5
