ITEM: TIMESTEP
100000
ITEM: NUMBER OF ATOMS
400
ITEM: BOX BOUNDS pp pp pp
0.0000000000000000e+00 2.2360679774997898e+01
0.0000000000000000e+00 2.2360679774997898e+01
-5.5901699437494745e-01 5.5901699437494745e-01
ITEM: ATOMS id type xs ys zs
352 1 0.00645561 0.0257775 0.5
247 1 0.054773 0.0308204 0.5
211 1 0.0941463 0.00885029 0.5
37 1 0.115883 0.0511776 0.5
388 1 0.024338 0.0770354 0.5
74 1 0.0862956 0.0818415 0.5
369 1 0.067067 0.121022 0.5
99 1 0.0166837 0.130855 0.5
19 1 0.0498549 0.161785 0.5
345 1 0.103289 0.158578 0.5
314 1 0.0166433 0.217314 0.5
164 1 0.087207 0.209283 0.5
395 1 0.0633431 0.244757 0.5
244 1 0.116901 0.253735 0.5
137 1 0.0295021 0.283423 0.5
189 1 0.091253 0.288764 0.5
45 1 0.0278508 0.332351 0.5
105 1 0.0133621 0.371204 0.5
6 1 0.0814205 0.36151 0.5
118 1 0.0518675 0.392144 0.5
248 1 0.106113 0.399608 0.5
218 1 0.0082006 0.421162 0.5
231 1 0.0252693 0.466757 0.5
289 1 0.0633442 0.444759 0.5
350 1 0.119772 0.455425 0.5
287 1 0.0262991 0.514003 0.5
180 1 0.102065 0.509925 0.5
309 1 0.0549999 0.555865 0.5
62 1 0.00949477 0.571814 0.5
11 1 0.0997783 0.581522 0.5
375 1 0.0322788 0.610132 0.5
59 1 0.119003 0.619128 0.5
48 1 0.0779026 0.645898 0.5
293 1 0.0357391 0.672307 0.5
376 1 0.120388 0.669301 0.5
252 1 0.0861443 0.69665 0.5
335 1 0.0459887 0.719391 0.5
313 1 0.0907317 0.749911 0.5
13 1 0.0465079 0.764613 0.5
364 1 0.0680934 0.807307 0.5
78 1 0.11279 0.802121 0.5
1 1 0.0246813 0.812899 0.5
103 1 0.0512434 0.855751 0.5
111 1 0.108168 0.863019 0.5
185 1 0.0028728 0.887554 0.5
303 1 0.0739883 0.894852 0.5
28 1 0.0315771 0.937341 0.5
86 1 0.0906506 0.939943 0.5
284 1 0.00995549 0.978695 0.5
202 1 0.0624493 0.973462 0.5
279 1 0.160512 0.0179445 0.5
176 1 0.200832 0.0361916 0.5
150 1 0.166728 0.0724572 0.5
120 1 0.217058 0.0867381 0.5
286 1 0.130793 0.0993394 0.5
379 1 0.182476 0.113569 0.5
397 1 0.144336 0.141132 0.5
16 1 0.237607 0.150935 0.5
57 1 0.183924 0.159174 0.5
225 1 0.134234 0.188194 0.5
320 1 0.225872 0.2004 0.5
130 1 0.156082 0.227953 0.5
336 1 0.198982 0.241344 0.5
100 1 0.162549 0.278704 0.5
149 1 0.13292 0.308132 0.5
400 1 0.202467 0.299814 0.5
318 1 0.247475 0.290796 0.5
360 1 0.236738 0.337181 0.5
292 1 0.146488 0.349725 0.5
325 1 0.193837 0.363227 0.5
179 1 0.157083 0.404801 0.5
391 1 0.234314 0.386757 0.5
321 1 0.203627 0.430673 0.5
25 1 0.165596 0.456165 0.5
109 1 0.202072 0.495143 0.5
34 1 0.249146 0.493925 0.5
242 1 0.145548 0.505711 0.5
283 1 0.137673 0.559699 0.5
355 1 0.177807 0.532698 0.5
302 1 0.221348 0.53712 0.5
23 1 0.197946 0.592021 0.5
270 1 0.161307 0.618006 0.5
233 1 0.21431 0.640189 0.5
311 1 0.170835 0.664613 0.5
66 1 0.220394 0.686953 0.5
190 1 0.158292 0.711399 0.5
288 1 0.194545 0.736456 0.5
340 1 0.239444 0.730569 0.5
102 1 0.142738 0.759282 0.5
167 1 0.185788 0.78145 0.5
162 1 0.234185 0.806144 0.5
229 1 0.14645 0.829981 0.5
5 1 0.197268 0.828409 0.5
366 1 0.215448 0.87432 0.5
195 1 0.127075 0.905839 0.5
14 1 0.166179 0.885362 0.5
46 1 0.188016 0.928663 0.5
107 1 0.14186 0.95784 0.5
161 1 0.241089 0.964156 0.5
170 1 0.185684 0.971765 0.5
65 1 0.253941 0.0548082 0.5
165 1 0.297991 0.0346237 0.5
24 1 0.346153 0.0363458 0.5
297 1 0.331766 0.0796463 0.5
361 1 0.374946 0.0739904 0.5
141 1 0.285382 0.0958172 0.5
52 1 0.292548 0.153946 0.5
306 1 0.326631 0.127349 0.5
342 1 0.368286 0.154842 0.5
253 1 0.331248 0.185036 0.5
36 1 0.261876 0.242409 0.5
197 1 0.312275 0.230001 0.5
217 1 0.357648 0.224257 0.5
88 1 0.339817 0.265298 0.5
31 1 0.299643 0.28562 0.5
147 1 0.350276 0.309527 0.5
357 1 0.285417 0.343355 0.5
58 1 0.327879 0.373883 0.5
177 1 0.279506 0.386835 0.5
135 1 0.308069 0.420211 0.5
261 1 0.354695 0.412689 0.5
115 1 0.334408 0.462594 0.5
90 1 0.29766 0.510523 0.5
312 1 0.352671 0.500077 0.5
228 1 0.335003 0.54877 0.5
3 1 0.311624 0.592218 0.5
181 1 0.358461 0.587536 0.5
60 1 0.272559 0.614563 0.5
239 1 0.366002 0.632618 0.5
323 1 0.254667 0.656419 0.5
126 1 0.302129 0.659139 0.5
92 1 0.267948 0.700458 0.5
221 1 0.336546 0.694113 0.5
223 1 0.302494 0.729718 0.5
317 1 0.367293 0.735749 0.5
215 1 0.268983 0.777214 0.5
134 1 0.319434 0.779219 0.5
230 1 0.360287 0.798412 0.5
18 1 0.287973 0.81706 0.5
96 1 0.256689 0.848914 0.5
260 1 0.310057 0.862945 0.5
298 1 0.361196 0.845747 0.5
207 1 0.266611 0.891674 0.5
205 1 0.346467 0.897789 0.5
299 1 0.285104 0.939697 0.5
145 1 0.335881 0.943122 0.5
222 1 0.266474 0.999183 0.5
385 1 0.311611 0.9843 0.5
339 1 0.364531 0.984851 0.5
349 1 0.408654 0.000696694 0.5
61 1 0.46119 0.00814576 0.5
201 1 0.413529 0.0504949 0.5
156 1 0.461943 0.0776191 0.5
113 1 0.411553 0.0984121 0.5
117 1 0.449983 0.123027 0.5
250 1 0.494363 0.111837 0.5
255 1 0.410966 0.145507 0.5
82 1 0.484183 0.153619 0.5
275 1 0.403952 0.192204 0.5
370 1 0.453083 0.20492 0.5
95 1 0.402841 0.239012 0.5
341 1 0.453032 0.249635 0.5
358 1 0.4979 0.271604 0.5
237 1 0.393612 0.293235 0.5
245 1 0.438866 0.306072 0.5
399 1 0.380655 0.348655 0.5
20 1 0.415267 0.374194 0.5
173 1 0.453063 0.350981 0.5
142 1 0.401347 0.421475 0.5
64 1 0.476582 0.419451 0.5
108 1 0.376888 0.459713 0.5
257 1 0.446556 0.457524 0.5
209 1 0.419506 0.492885 0.5
291 1 0.495019 0.478269 0.5
238 1 0.467097 0.519168 0.5
267 1 0.404108 0.533294 0.5
160 1 0.447284 0.554563 0.5
315 1 0.404056 0.575412 0.5
10 1 0.486263 0.569783 0.5
153 1 0.449677 0.597929 0.5
43 1 0.497861 0.613504 0.5
204 1 0.417532 0.628604 0.5
262 1 0.38707 0.680465 0.5
133 1 0.444074 0.684127 0.5
21 1 0.495718 0.682019 0.5
168 1 0.417518 0.721782 0.5
91 1 0.476637 0.72783 0.5
390 1 0.399479 0.769521 0.5
116 1 0.442969 0.759071 0.5
152 1 0.423171 0.808593 0.5
77 1 0.466538 0.816573 0.5
372 1 0.426719 0.856161 0.5
136 1 0.494329 0.86411 0.5
119 1 0.39651 0.888975 0.5
146 1 0.452828 0.8934 0.5
98 1 0.49485 0.90948 0.5
192 1 0.403114 0.954406 0.5
268 1 0.448227 0.952756 0.5
344 1 0.493125 0.954115 0.5
27 1 0.521944 0.0242349 0.5
114 1 0.578955 0.0217222 0.5
265 1 0.558747 0.0582616 0.5
224 1 0.624671 0.054619 0.5
101 1 0.505643 0.0629541 0.5
49 1 0.601503 0.093335 0.5
365 1 0.555927 0.111887 0.5
338 1 0.591246 0.151897 0.5
333 1 0.539372 0.162589 0.5
54 1 0.522784 0.203602 0.5
122 1 0.60573 0.200242 0.5
123 1 0.566666 0.219906 0.5
55 1 0.537546 0.254926 0.5
232 1 0.595247 0.270376 0.5
144 1 0.528563 0.298523 0.5
394 1 0.501876 0.334026 0.5
210 1 0.592931 0.315093 0.5
194 1 0.554154 0.355324 0.5
35 1 0.624252 0.359881 0.5
387 1 0.506519 0.381278 0.5
214 1 0.574055 0.396395 0.5
139 1 0.532232 0.422162 0.5
7 1 0.619332 0.412048 0.5
259 1 0.582379 0.445968 0.5
80 1 0.540338 0.468854 0.5
282 1 0.588627 0.485938 0.5
184 1 0.513319 0.524453 0.5
56 1 0.561295 0.518906 0.5
290 1 0.578565 0.559155 0.5
143 1 0.613629 0.533367 0.5
347 1 0.534859 0.574841 0.5
129 1 0.528288 0.650179 0.5
157 1 0.566764 0.628182 0.5
310 1 0.611305 0.635456 0.5
106 1 0.590026 0.680654 0.5
41 1 0.56627 0.717774 0.5
12 1 0.62009 0.711964 0.5
249 1 0.524815 0.72323 0.5
191 1 0.505956 0.775609 0.5
125 1 0.551559 0.769203 0.5
42 1 0.594479 0.762232 0.5
2 1 0.539652 0.812499 0.5
124 1 0.58667 0.842188 0.5
378 1 0.534588 0.874829 0.5
331 1 0.604362 0.885172 0.5
392 1 0.539469 0.917219 0.5
93 1 0.583196 0.924524 0.5
294 1 0.538087 0.96254 0.5
104 1 0.581427 0.975743 0.5
76 1 0.622155 0.99939 0.5
193 1 0.709532 0.0107918 0.5
258 1 0.665131 0.0334521 0.5
163 1 0.714263 0.0529956 0.5
281 1 0.675691 0.0772502 0.5
235 1 0.748892 0.0893264 0.5
329 1 0.644872 0.118259 0.5
155 1 0.702131 0.146288 0.5
30 1 0.647638 0.173878 0.5
327 1 0.738212 0.172995 0.5
332 1 0.699234 0.206659 0.5
50 1 0.628285 0.236615 0.5
276 1 0.673571 0.243455 0.5
373 1 0.742221 0.248749 0.5
241 1 0.639245 0.280548 0.5
295 1 0.721483 0.285608 0.5
200 1 0.687195 0.318064 0.5
301 1 0.717594 0.348771 0.5
367 1 0.6609 0.382193 0.5
380 1 0.710235 0.392867 0.5
328 1 0.66186 0.433639 0.5
343 1 0.705098 0.437107 0.5
337 1 0.63681 0.473301 0.5
354 1 0.679739 0.475204 0.5
240 1 0.738481 0.476016 0.5
243 1 0.658159 0.52569 0.5
346 1 0.742442 0.523747 0.5
112 1 0.703595 0.545868 0.5
9 1 0.625992 0.574825 0.5
377 1 0.67016 0.57547 0.5
29 1 0.72404 0.58933 0.5
280 1 0.654662 0.619792 0.5
374 1 0.69117 0.652113 0.5
22 1 0.647566 0.665426 0.5
322 1 0.743979 0.664654 0.5
154 1 0.669644 0.704411 0.5
175 1 0.714081 0.70926 0.5
68 1 0.697466 0.748215 0.5
254 1 0.738602 0.77387 0.5
17 1 0.655474 0.783267 0.5
75 1 0.703134 0.798583 0.5
272 1 0.629711 0.816862 0.5
216 1 0.678314 0.837327 0.5
40 1 0.738826 0.823565 0.5
47 1 0.641025 0.858154 0.5
15 1 0.744641 0.865391 0.5
324 1 0.645068 0.902429 0.5
33 1 0.69249 0.894063 0.5
182 1 0.729779 0.921831 0.5
319 1 0.629924 0.941231 0.5
51 1 0.696207 0.946207 0.5
121 1 0.737794 0.965566 0.5
371 1 0.673566 0.983123 0.5
187 1 0.820548 0.0227047 0.5
348 1 0.763139 0.0374788 0.5
148 1 0.852738 0.0566955 0.5
362 1 0.7888 0.0738329 0.5
70 1 0.813678 0.1158 0.5
330 1 0.855157 0.101916 0.5
304 1 0.765705 0.130563 0.5
285 1 0.846043 0.149101 0.5
172 1 0.805448 0.171843 0.5
159 1 0.779156 0.206855 0.5
296 1 0.836412 0.206256 0.5
151 1 0.786268 0.250128 0.5
219 1 0.840362 0.251854 0.5
140 1 0.840294 0.305622 0.5
251 1 0.76728 0.313424 0.5
382 1 0.759456 0.369166 0.5
226 1 0.808567 0.354866 0.5
307 1 0.859305 0.347538 0.5
220 1 0.79129 0.403118 0.5
208 1 0.841877 0.39686 0.5
69 1 0.751084 0.418345 0.5
278 1 0.784955 0.458443 0.5
274 1 0.82834 0.445078 0.5
85 1 0.784497 0.502938 0.5
334 1 0.849168 0.502772 0.5
186 1 0.766961 0.558921 0.5
300 1 0.819254 0.533547 0.5
383 1 0.76267 0.619102 0.5
63 1 0.845632 0.600612 0.5
246 1 0.786639 0.661146 0.5
67 1 0.844617 0.656854 0.5
183 1 0.794775 0.709258 0.5
131 1 0.844594 0.710154 0.5
264 1 0.756254 0.730998 0.5
363 1 0.807746 0.754839 0.5
206 1 0.864344 0.762885 0.5
158 1 0.790488 0.816825 0.5
4 1 0.859215 0.816885 0.5
277 1 0.801269 0.857611 0.5
213 1 0.853997 0.871519 0.5
305 1 0.776129 0.896393 0.5
26 1 0.830094 0.909137 0.5
381 1 0.794464 0.93883 0.5
199 1 0.831693 0.959716 0.5
44 1 0.791642 0.982753 0.5
269 1 0.892474 0.0286519 0.5
81 1 0.940545 0.0379838 0.5
196 1 0.900722 0.0722873 0.5
198 1 0.976999 0.0694437 0.5
83 1 0.924758 0.108069 0.5
263 1 0.889363 0.137162 0.5
316 1 0.957203 0.141475 0.5
72 1 0.927514 0.185647 0.5
386 1 0.997684 0.171177 0.5
166 1 0.879045 0.217368 0.5
73 1 0.968103 0.204933 0.5
234 1 0.928006 0.237489 0.5
396 1 0.885413 0.266086 0.5
169 1 0.969114 0.25013 0.5
128 1 0.943965 0.294023 0.5
110 1 0.990479 0.304706 0.5
178 1 0.88633 0.314177 0.5
266 1 0.96188 0.336254 0.5
89 1 0.917627 0.364911 0.5
94 1 0.890655 0.397963 0.5
359 1 0.967289 0.383969 0.5
127 1 0.932588 0.413813 0.5
393 1 0.890412 0.443645 0.5
398 1 0.931124 0.468013 0.5
236 1 0.968822 0.442018 0.5
174 1 0.897803 0.497397 0.5
39 1 0.983545 0.485277 0.5
171 1 0.948136 0.509387 0.5
212 1 0.986698 0.529146 0.5
71 1 0.922407 0.543892 0.5
138 1 0.887756 0.572932 0.5
132 1 0.947497 0.580367 0.5
32 1 0.906475 0.613837 0.5
308 1 0.988639 0.611339 0.5
271 1 0.887444 0.664585 0.5
368 1 0.942919 0.659083 0.5
188 1 0.98574 0.66287 0.5
84 1 0.900508 0.705043 0.5
97 1 0.999388 0.703168 0.5
8 1 0.908967 0.749623 0.5
273 1 0.950257 0.733379 0.5
38 1 0.995297 0.759707 0.5
351 1 0.902659 0.805674 0.5
79 1 0.957355 0.799294 0.5
53 1 0.89315 0.849301 0.5
356 1 0.941953 0.849925 0.5
256 1 0.997158 0.845983 0.5
87 1 0.896835 0.902187 0.5
384 1 0.953395 0.892675 0.5
326 1 0.928192 0.935185 0.5
353 1 0.98183 0.934421 0.5
389 1 0.888509 0.948316 0.5
227 1 0.912097 0.985982 0.5
203 1 0.961701 0.995457 0.5
