ITEM: TIMESTEP
100000
ITEM: NUMBER OF ATOMS
400
ITEM: BOX BOUNDS pp pp pp
0.0000000000000000e+00 1.9069251784911849e+01
0.0000000000000000e+00 1.9069251784911849e+01
-4.7673129462279618e-01 4.7673129462279618e-01
ITEM: ATOMS id type xs ys zs
2 1 0.0513902 0.0264468 0.5
58 1 0.00774033 0.0537598 0.5
6 1 0.0562525 0.0765861 0.5
61 1 0.0964416 0.0471158 0.5
4 1 0.0180117 0.112718 0.5
63 1 0.102815 0.0986665 0.5
5 1 0.0667913 0.13475 0.5
65 1 0.112387 0.155895 0.5
9 1 0.0207145 0.167707 0.5
14 1 0.0689638 0.184997 0.5
71 1 0.115253 0.208135 0.5
11 1 0.0119983 0.219303 0.5
17 1 0.0683874 0.236376 0.5
19 1 0.0261925 0.270992 0.5
20 1 0.118179 0.260824 0.5
374 1 0.0251899 0.320064 0.5
24 1 0.0709043 0.29248 0.5
376 1 0.0348111 0.371828 0.5
22 1 0.0787719 0.347565 0.5
25 1 0.0832712 0.399193 0.5
380 1 0.0442174 0.434557 0.5
32 1 0.096246 0.454004 0.5
31 1 0.0564361 0.483081 0.5
35 1 0.0193763 0.517016 0.5
39 1 0.0645568 0.535434 0.5
33 1 0.103913 0.502502 0.5
37 1 0.0188203 0.565325 0.5
36 1 0.112976 0.558246 0.5
91 1 0.0260858 0.616769 0.5
86 1 0.0722566 0.589093 0.5
92 1 0.122178 0.60574 0.5
93 1 0.080608 0.648421 0.5
89 1 0.0353964 0.678022 0.5
95 1 0.0919944 0.697973 0.5
48 1 0.0515889 0.724425 0.5
53 1 0.0971761 0.749086 0.5
44 1 0.000970727 0.757659 0.5
51 1 0.0503953 0.776929 0.5
47 1 8.79899e-05 0.810502 0.5
52 1 0.0710725 0.824903 0.5
57 1 0.115765 0.797751 0.5
398 1 0.0287898 0.851914 0.5
60 1 0.117648 0.84982 0.5
55 1 0.0332853 0.907783 0.5
396 1 0.0732682 0.875558 0.5
99 1 0.122164 0.900591 0.5
399 1 0.0822971 0.92986 0.5
400 1 0.00866764 0.995817 0.5
59 1 0.0477376 0.964969 0.5
56 1 0.0917847 0.99464 0.5
3 1 0.142748 0.0199766 0.5
64 1 0.232837 0.012234 0.5
67 1 0.15003 0.0767704 0.5
62 1 0.189954 0.0444661 0.5
66 1 0.237491 0.0641186 0.5
69 1 0.199512 0.0965696 0.5
116 1 0.24522 0.115073 0.5
12 1 0.155323 0.126998 0.5
15 1 0.205454 0.14623 0.5
18 1 0.155842 0.180365 0.5
73 1 0.207547 0.197836 0.5
21 1 0.16339 0.233038 0.5
74 1 0.169759 0.284593 0.5
119 1 0.208546 0.256132 0.5
76 1 0.125676 0.313239 0.5
122 1 0.215606 0.307056 0.5
26 1 0.129371 0.369129 0.5
75 1 0.17391 0.33868 0.5
78 1 0.225712 0.357093 0.5
28 1 0.142361 0.416544 0.5
27 1 0.183273 0.388678 0.5
77 1 0.23515 0.409637 0.5
29 1 0.193568 0.440034 0.5
85 1 0.146963 0.475951 0.5
81 1 0.196153 0.494955 0.5
30 1 0.240001 0.462327 0.5
84 1 0.149274 0.525099 0.5
137 1 0.247874 0.518983 0.5
87 1 0.16184 0.578418 0.5
83 1 0.205054 0.544365 0.5
146 1 0.215693 0.600802 0.5
94 1 0.129117 0.656715 0.5
90 1 0.17135 0.628415 0.5
140 1 0.216163 0.650375 0.5
149 1 0.17556 0.683338 0.5
153 1 0.233381 0.698185 0.5
98 1 0.141565 0.719663 0.5
152 1 0.192858 0.731874 0.5
96 1 0.156946 0.767631 0.5
147 1 0.243057 0.756175 0.5
155 1 0.160878 0.82453 0.5
156 1 0.202546 0.794876 0.5
103 1 0.208273 0.847996 0.5
54 1 0.16652 0.875597 0.5
100 1 0.214396 0.902504 0.5
158 1 0.1754 0.933222 0.5
102 1 0.224095 0.953795 0.5
97 1 0.136007 0.963439 0.5
101 1 0.182735 0.984826 0.5
104 1 0.282281 0.0307316 0.5
163 1 0.370085 0.0129115 0.5
113 1 0.284813 0.082255 0.5
108 1 0.32974 0.0494796 0.5
107 1 0.372275 0.0708033 0.5
110 1 0.33423 0.102538 0.5
70 1 0.253684 0.166393 0.5
68 1 0.293117 0.134102 0.5
117 1 0.343667 0.155244 0.5
72 1 0.297537 0.184248 0.5
121 1 0.348709 0.205931 0.5
120 1 0.255089 0.215659 0.5
173 1 0.303822 0.232724 0.5
124 1 0.255405 0.269503 0.5
176 1 0.354126 0.261689 0.5
123 1 0.272181 0.318937 0.5
127 1 0.314233 0.293387 0.5
175 1 0.359842 0.315239 0.5
125 1 0.276441 0.374993 0.5
130 1 0.318684 0.345182 0.5
177 1 0.3649 0.365898 0.5
126 1 0.324355 0.395611 0.5
128 1 0.281404 0.429996 0.5
131 1 0.330911 0.452683 0.5
133 1 0.372017 0.418336 0.5
79 1 0.285031 0.483729 0.5
80 1 0.294148 0.539439 0.5
134 1 0.337865 0.511712 0.5
143 1 0.254309 0.571594 0.5
138 1 0.349847 0.561774 0.5
150 1 0.262876 0.622467 0.5
82 1 0.303973 0.591025 0.5
136 1 0.365173 0.616529 0.5
135 1 0.31727 0.64123 0.5
142 1 0.276308 0.673609 0.5
144 1 0.329451 0.699279 0.5
141 1 0.285058 0.72331 0.5
193 1 0.301269 0.78668 0.5
191 1 0.333395 0.750511 0.5
157 1 0.250668 0.81304 0.5
154 1 0.348997 0.806862 0.5
197 1 0.256734 0.865586 0.5
151 1 0.302964 0.838238 0.5
198 1 0.352206 0.859336 0.5
199 1 0.311689 0.890572 0.5
200 1 0.362786 0.908607 0.5
159 1 0.267452 0.916875 0.5
160 1 0.312463 0.942145 0.5
105 1 0.274921 0.978024 0.5
109 1 0.321158 0.990456 0.5
106 1 0.36035 0.958551 0.5
112 1 0.41444 0.0383562 0.5
165 1 0.456888 0.00234586 0.5
167 1 0.466097 0.051638 0.5
111 1 0.429345 0.0908209 0.5
115 1 0.476535 0.102613 0.5
114 1 0.383012 0.126307 0.5
169 1 0.433095 0.1419 0.5
172 1 0.483481 0.159967 0.5
118 1 0.389304 0.176687 0.5
174 1 0.442776 0.196168 0.5
171 1 0.394206 0.232743 0.5
219 1 0.491132 0.210928 0.5
178 1 0.400954 0.284332 0.5
225 1 0.452823 0.250125 0.5
222 1 0.494235 0.276817 0.5
226 1 0.448783 0.301731 0.5
180 1 0.408194 0.335695 0.5
228 1 0.462978 0.356685 0.5
179 1 0.413417 0.390119 0.5
182 1 0.468531 0.412597 0.5
234 1 0.420081 0.443769 0.5
129 1 0.378509 0.474438 0.5
181 1 0.433752 0.494887 0.5
238 1 0.473489 0.462797 0.5
132 1 0.385412 0.523821 0.5
235 1 0.483651 0.519132 0.5
184 1 0.397451 0.58016 0.5
237 1 0.439126 0.545411 0.5
239 1 0.490188 0.567214 0.5
183 1 0.449729 0.598997 0.5
139 1 0.411538 0.631811 0.5
185 1 0.46363 0.647456 0.5
88 1 0.376239 0.668793 0.5
189 1 0.423474 0.678753 0.5
186 1 0.467726 0.705237 0.5
145 1 0.381782 0.72088 0.5
148 1 0.430609 0.739279 0.5
195 1 0.390917 0.770093 0.5
196 1 0.43793 0.790067 0.5
192 1 0.479501 0.760136 0.5
255 1 0.397086 0.82496 0.5
194 1 0.486166 0.81126 0.5
252 1 0.44745 0.842624 0.5
256 1 0.491269 0.866255 0.5
201 1 0.405587 0.875942 0.5
258 1 0.451683 0.899838 0.5
162 1 0.407178 0.928012 0.5
202 1 0.4532 0.949959 0.5
259 1 0.499685 0.919104 0.5
161 1 0.408456 0.981936 0.5
164 1 0.505143 0.0219552 0.5
204 1 0.551983 0.0381972 0.5
206 1 0.602806 0.016719 0.5
207 1 0.515998 0.0723267 0.5
261 1 0.605909 0.0682514 0.5
209 1 0.563902 0.0972072 0.5
264 1 0.615849 0.117573 0.5
170 1 0.524874 0.128724 0.5
208 1 0.578427 0.150449 0.5
168 1 0.531447 0.179675 0.5
210 1 0.576986 0.203071 0.5
212 1 0.621802 0.17228 0.5
216 1 0.534846 0.243044 0.5
213 1 0.624413 0.225075 0.5
220 1 0.548301 0.291201 0.5
217 1 0.582705 0.253446 0.5
223 1 0.505817 0.325591 0.5
221 1 0.599083 0.30906 0.5
224 1 0.554763 0.342427 0.5
282 1 0.602284 0.369673 0.5
229 1 0.51403 0.379157 0.5
227 1 0.558507 0.401061 0.5
231 1 0.518088 0.436687 0.5
230 1 0.564636 0.454853 0.5
288 1 0.609359 0.418016 0.5
232 1 0.524409 0.488126 0.5
292 1 0.614507 0.471675 0.5
236 1 0.534807 0.538981 0.5
233 1 0.575708 0.507271 0.5
294 1 0.586144 0.555782 0.5
240 1 0.5011 0.615465 0.5
242 1 0.547625 0.593607 0.5
297 1 0.600251 0.604376 0.5
301 1 0.557465 0.64039 0.5
300 1 0.607697 0.659579 0.5
188 1 0.511041 0.667103 0.5
241 1 0.564436 0.691203 0.5
187 1 0.522151 0.719732 0.5
246 1 0.569405 0.743326 0.5
245 1 0.617229 0.713184 0.5
190 1 0.526062 0.777212 0.5
243 1 0.61943 0.763243 0.5
250 1 0.536802 0.82685 0.5
249 1 0.576647 0.796605 0.5
251 1 0.583286 0.851899 0.5
257 1 0.541234 0.88364 0.5
260 1 0.589373 0.902654 0.5
203 1 0.548337 0.93407 0.5
318 1 0.594956 0.953205 0.5
166 1 0.504695 0.969887 0.5
205 1 0.558282 0.987796 0.5
319 1 0.645112 0.0387924 0.5
320 1 0.686774 0.0025877 0.5
355 1 0.736775 0.0179789 0.5
263 1 0.69598 0.0523071 0.5
321 1 0.738908 0.077241 0.5
262 1 0.657729 0.0893683 0.5
266 1 0.701539 0.111468 0.5
265 1 0.662809 0.142821 0.5
268 1 0.711348 0.165587 0.5
267 1 0.668218 0.196983 0.5
211 1 0.680221 0.247114 0.5
270 1 0.720128 0.217023 0.5
218 1 0.644001 0.282802 0.5
215 1 0.731097 0.274996 0.5
214 1 0.691523 0.304122 0.5
273 1 0.742681 0.32228 0.5
279 1 0.641357 0.335378 0.5
277 1 0.691993 0.35438 0.5
280 1 0.748855 0.372261 0.5
276 1 0.654114 0.3865 0.5
283 1 0.708843 0.406398 0.5
285 1 0.66363 0.436709 0.5
293 1 0.671442 0.485996 0.5
289 1 0.712548 0.458993 0.5
291 1 0.62821 0.520883 0.5
339 1 0.685834 0.535527 0.5
337 1 0.734816 0.50722 0.5
296 1 0.64594 0.568713 0.5
341 1 0.737796 0.557392 0.5
299 1 0.649479 0.623096 0.5
345 1 0.692007 0.589528 0.5
298 1 0.737628 0.610702 0.5
302 1 0.697582 0.638617 0.5
304 1 0.654852 0.67735 0.5
347 1 0.701967 0.700307 0.5
295 1 0.743446 0.666985 0.5
303 1 0.663038 0.732275 0.5
346 1 0.748193 0.719992 0.5
244 1 0.667071 0.781076 0.5
305 1 0.710986 0.75483 0.5
247 1 0.62599 0.815108 0.5
248 1 0.712819 0.805499 0.5
253 1 0.630317 0.872874 0.5
309 1 0.674728 0.834619 0.5
254 1 0.720214 0.858978 0.5
312 1 0.67871 0.896855 0.5
314 1 0.727771 0.914008 0.5
315 1 0.636445 0.927796 0.5
313 1 0.686536 0.945453 0.5
316 1 0.642247 0.978027 0.5
317 1 0.734312 0.965136 0.5
322 1 0.782244 0.0384223 0.5
357 1 0.827104 0.0125172 0.5
324 1 0.872324 0.0340075 0.5
365 1 0.830957 0.0635986 0.5
326 1 0.791557 0.091173 0.5
367 1 0.837039 0.116216 0.5
323 1 0.753049 0.128381 0.5
328 1 0.797662 0.145642 0.5
269 1 0.759086 0.180202 0.5
327 1 0.844906 0.169538 0.5
271 1 0.76847 0.23351 0.5
325 1 0.808124 0.208731 0.5
330 1 0.862407 0.218046 0.5
272 1 0.782888 0.290104 0.5
329 1 0.824869 0.256093 0.5
275 1 0.831357 0.305552 0.5
274 1 0.793247 0.342399 0.5
278 1 0.842551 0.361035 0.5
287 1 0.80101 0.394124 0.5
281 1 0.859966 0.411332 0.5
286 1 0.76307 0.425874 0.5
290 1 0.81254 0.440059 0.5
338 1 0.77379 0.476968 0.5
284 1 0.822579 0.491751 0.5
335 1 0.860572 0.460213 0.5
340 1 0.781416 0.526982 0.5
381 1 0.829545 0.541191 0.5
342 1 0.790737 0.578421 0.5
385 1 0.839049 0.599743 0.5
343 1 0.799649 0.63078 0.5
389 1 0.846539 0.653058 0.5
344 1 0.798209 0.683479 0.5
391 1 0.85121 0.703339 0.5
349 1 0.806783 0.732711 0.5
348 1 0.758685 0.77449 0.5
308 1 0.812068 0.789312 0.5
350 1 0.854892 0.757859 0.5
307 1 0.76475 0.827203 0.5
392 1 0.859459 0.807377 0.5
311 1 0.818047 0.839394 0.5
351 1 0.866286 0.857786 0.5
306 1 0.768958 0.880883 0.5
353 1 0.818609 0.892913 0.5
310 1 0.779288 0.928411 0.5
358 1 0.832295 0.944012 0.5
359 1 0.778736 0.983756 0.5
360 1 0.871027 0.982307 0.5
362 1 0.918844 0.015425 0.5
1 1 0.968578 0.0255467 0.5
363 1 0.924677 0.0684634 0.5
366 1 0.876971 0.0847394 0.5
7 1 0.930155 0.117514 0.5
364 1 0.971934 0.0894178 0.5
368 1 0.882684 0.136794 0.5
8 1 0.974917 0.140806 0.5
10 1 0.917786 0.171126 0.5
369 1 0.965753 0.190291 0.5
370 1 0.915413 0.222633 0.5
13 1 0.967122 0.241948 0.5
371 1 0.87681 0.27517 0.5
16 1 0.926879 0.283102 0.5
331 1 0.879994 0.326465 0.5
372 1 0.929254 0.331867 0.5
23 1 0.97528 0.299837 0.5
332 1 0.898755 0.372918 0.5
373 1 0.987605 0.350872 0.5
334 1 0.944788 0.388213 0.5
375 1 0.994986 0.406126 0.5
333 1 0.906933 0.421813 0.5
336 1 0.953434 0.442848 0.5
379 1 0.911422 0.474069 0.5
34 1 0.958651 0.49062 0.5
378 1 0.999667 0.461652 0.5
377 1 0.875221 0.509425 0.5
383 1 0.923546 0.531482 0.5
382 1 0.876311 0.564386 0.5
384 1 0.972576 0.542335 0.5
387 1 0.888836 0.617575 0.5
386 1 0.929471 0.586438 0.5
38 1 0.977381 0.593264 0.5
40 1 0.936963 0.634232 0.5
42 1 0.987313 0.655658 0.5
388 1 0.897521 0.668342 0.5
41 1 0.946399 0.686036 0.5
45 1 0.992849 0.706865 0.5
43 1 0.897648 0.724511 0.5
46 1 0.946637 0.741044 0.5
390 1 0.903506 0.775377 0.5
50 1 0.954508 0.791149 0.5
49 1 0.909885 0.828266 0.5
393 1 0.960865 0.844361 0.5
352 1 0.914306 0.878558 0.5
354 1 0.875763 0.907063 0.5
394 1 0.987413 0.886571 0.5
397 1 0.911786 0.952963 0.5
356 1 0.949592 0.919066 0.5
395 1 0.99817 0.945888 0.5
361 1 0.956214 0.976873 0.5
