ITEM: TIMESTEP
100000
ITEM: NUMBER OF ATOMS
400
ITEM: BOX BOUNDS pp pp pp
0.0000000000000000e+00 2.5819888974716111e+01
0.0000000000000000e+00 2.5819888974716111e+01
-6.4549722436790280e-01 6.4549722436790280e-01
ITEM: ATOMS id type xs ys zs
159 1 0.0395725 0.0924519 0.5
305 1 0.104723 0.0162152 0.5
80 1 0.0365674 0.0236879 0.5
265 1 0.0780771 0.0814334 0.5
127 1 0.00820217 0.0588679 0.5
14 1 0.0477686 0.201939 0.5
356 1 0.0403354 0.144258 0.5
35 1 0.077821 0.178425 0.5
97 1 0.100908 0.124139 0.5
396 1 0.00304007 0.129271 0.5
304 1 0.0273153 0.235996 0.5
279 1 0.114996 0.208727 0.5
226 1 0.0483393 0.285056 0.5
329 1 0.0993743 0.301545 0.5
72 1 0.0887575 0.355229 0.5
39 1 0.0541449 0.326245 0.5
27 1 0.0106855 0.284736 0.5
174 1 0.0810679 0.258255 0.5
144 1 0.0134096 0.328105 0.5
231 1 0.125025 0.343371 0.5
283 1 0.0014737 0.475937 0.5
227 1 0.0886989 0.472482 0.5
135 1 8.08439e-05 0.428477 0.5
131 1 0.0463942 0.44831 0.5
10 1 0.07262 0.390711 0.5
259 1 0.054531 0.488396 0.5
387 1 0.1135 0.41137 0.5
4 1 0.107168 0.610615 0.5
164 1 0.0616014 0.544256 0.5
394 1 0.0193848 0.612349 0.5
224 1 0.1166 0.551781 0.5
235 1 0.0171612 0.521552 0.5
347 1 0.0270557 0.558971 0.5
236 1 0.0904825 0.519254 0.5
321 1 0.082063 0.645257 0.5
233 1 0.0681137 0.686797 0.5
139 1 0.0253091 0.731314 0.5
18 1 0.108218 0.680885 0.5
110 1 0.0666994 0.739127 0.5
308 1 0.0818523 0.77369 0.5
64 1 0.0583024 0.855339 0.5
339 1 0.0871905 0.82528 0.5
2 1 0.0395293 0.790396 0.5
177 1 0.122765 0.858511 0.5
51 1 0.00935147 0.827854 0.5
25 1 0.119138 0.797136 0.5
196 1 0.0160604 0.885368 0.5
23 1 0.0132829 0.929638 0.5
292 1 0.0447926 0.976284 0.5
254 1 0.0984747 0.901754 0.5
118 1 0.0545183 0.93826 0.5
331 1 0.0871626 0.965429 0.5
247 1 0.187853 0.0763899 0.5
337 1 0.141761 0.0174668 0.5
284 1 0.217154 0.0462283 0.5
58 1 0.139554 0.085416 0.5
294 1 0.227066 0.0835456 0.5
183 1 0.170734 0.0427304 0.5
363 1 0.164664 0.116121 0.5
190 1 0.179776 0.00219994 0.5
89 1 0.213652 0.121837 0.5
152 1 0.220395 0.00529076 0.5
68 1 0.152138 0.157893 0.5
62 1 0.24617 0.240238 0.5
320 1 0.184704 0.182557 0.5
44 1 0.213775 0.22298 0.5
162 1 0.178763 0.247453 0.5
176 1 0.222776 0.163288 0.5
324 1 0.202285 0.29121 0.5
288 1 0.207287 0.339547 0.5
192 1 0.245432 0.277733 0.5
350 1 0.137129 0.249088 0.5
372 1 0.161628 0.30665 0.5
90 1 0.165802 0.344446 0.5
121 1 0.194498 0.394162 0.5
125 1 0.152871 0.414082 0.5
295 1 0.208413 0.463293 0.5
119 1 0.142267 0.473423 0.5
293 1 0.246523 0.43806 0.5
166 1 0.151577 0.599417 0.5
313 1 0.207317 0.566572 0.5
297 1 0.205197 0.506995 0.5
336 1 0.144639 0.524643 0.5
362 1 0.249681 0.511433 0.5
117 1 0.249509 0.555203 0.5
289 1 0.188144 0.635541 0.5
122 1 0.230773 0.629311 0.5
237 1 0.177411 0.739194 0.5
120 1 0.190931 0.685303 0.5
207 1 0.22188 0.666096 0.5
57 1 0.139612 0.712072 0.5
48 1 0.22584 0.711378 0.5
225 1 0.126272 0.647889 0.5
67 1 0.173492 0.859246 0.5
8 1 0.230017 0.791071 0.5
153 1 0.213959 0.829501 0.5
105 1 0.159623 0.808505 0.5
383 1 0.194339 0.772046 0.5
393 1 0.224654 0.958787 0.5
277 1 0.185425 0.946934 0.5
101 1 0.228602 0.91809 0.5
352 1 0.140596 0.936817 0.5
195 1 0.157068 0.970659 0.5
378 1 0.29818 0.0255171 0.5
55 1 0.343291 0.0316075 0.5
37 1 0.267436 0.0719509 0.5
198 1 0.319554 0.0738976 0.5
92 1 0.35175 0.089495 0.5
6 1 0.282585 0.106691 0.5
322 1 0.25455 0.0325062 0.5
202 1 0.306455 0.144689 0.5
116 1 0.27231 0.182429 0.5
365 1 0.368949 0.193272 0.5
316 1 0.351234 0.129324 0.5
19 1 0.255808 0.141455 0.5
212 1 0.318683 0.211306 0.5
104 1 0.331174 0.247667 0.5
266 1 0.26855 0.327148 0.5
388 1 0.344177 0.354088 0.5
167 1 0.317855 0.287547 0.5
182 1 0.306704 0.346045 0.5
373 1 0.36092 0.299729 0.5
15 1 0.316389 0.457489 0.5
146 1 0.27434 0.467893 0.5
340 1 0.336554 0.497499 0.5
273 1 0.271485 0.406392 0.5
1 1 0.358289 0.460447 0.5
298 1 0.358356 0.406282 0.5
318 1 0.312959 0.60419 0.5
78 1 0.290803 0.53383 0.5
286 1 0.370611 0.571017 0.5
17 1 0.260058 0.59533 0.5
251 1 0.352362 0.617253 0.5
255 1 0.332314 0.685843 0.5
355 1 0.294241 0.709435 0.5
215 1 0.3284 0.734653 0.5
98 1 0.307879 0.656143 0.5
205 1 0.359033 0.659597 0.5
200 1 0.263911 0.650693 0.5
41 1 0.366506 0.700215 0.5
26 1 0.275085 0.742106 0.5
181 1 0.258158 0.692449 0.5
276 1 0.325984 0.80285 0.5
341 1 0.292331 0.836503 0.5
204 1 0.338528 0.835704 0.5
138 1 0.286263 0.780924 0.5
384 1 0.275693 0.873383 0.5
203 1 0.360886 0.7561 0.5
79 1 0.281299 0.987708 0.5
312 1 0.319435 0.994615 0.5
211 1 0.310087 0.894731 0.5
319 1 0.345426 0.968706 0.5
301 1 0.314856 0.945727 0.5
330 1 0.263999 0.941624 0.5
42 1 0.467888 0.0424049 0.5
275 1 0.39743 0.102946 0.5
46 1 0.443432 0.106609 0.5
85 1 0.383887 0.067926 0.5
369 1 0.481376 0.114061 0.5
130 1 0.413511 0.19325 0.5
173 1 0.442526 0.16389 0.5
270 1 0.390249 0.140595 0.5
140 1 0.487692 0.151574 0.5
73 1 0.449195 0.223431 0.5
262 1 0.39274 0.24731 0.5
113 1 0.397174 0.291093 0.5
258 1 0.463338 0.318635 0.5
156 1 0.474955 0.264501 0.5
74 1 0.481143 0.362952 0.5
371 1 0.385173 0.341436 0.5
34 1 0.436526 0.261017 0.5
88 1 0.42692 0.415 0.5
38 1 0.435935 0.37789 0.5
24 1 0.460921 0.440913 0.5
400 1 0.39392 0.382764 0.5
367 1 0.404274 0.450716 0.5
249 1 0.4431 0.47581 0.5
260 1 0.479228 0.406482 0.5
43 1 0.413988 0.499699 0.5
60 1 0.442384 0.535003 0.5
357 1 0.461674 0.586757 0.5
232 1 0.409534 0.577901 0.5
230 1 0.454817 0.623796 0.5
61 1 0.491304 0.615055 0.5
197 1 0.443116 0.729572 0.5
28 1 0.402998 0.721402 0.5
191 1 0.421632 0.683735 0.5
332 1 0.406162 0.638867 0.5
364 1 0.425946 0.764908 0.5
218 1 0.396879 0.83875 0.5
307 1 0.467733 0.771482 0.5
112 1 0.49712 0.797276 0.5
133 1 0.385066 0.791971 0.5
171 1 0.471334 0.824831 0.5
136 1 0.450675 0.958993 0.5
314 1 0.493464 0.922202 0.5
368 1 0.397208 0.929087 0.5
83 1 0.473143 0.990754 0.5
389 1 0.38424 0.972782 0.5
282 1 0.423184 0.984354 0.5
76 1 0.465121 0.879404 0.5
349 1 0.578179 0.0314497 0.5
186 1 0.559605 0.111901 0.5
56 1 0.509361 0.0404031 0.5
21 1 0.618617 0.0603612 0.5
358 1 0.556332 0.0669746 0.5
382 1 0.52352 0.0956027 0.5
150 1 0.547642 0.000890299 0.5
252 1 0.526513 0.132326 0.5
221 1 0.522407 0.168715 0.5
246 1 0.556712 0.236281 0.5
22 1 0.550147 0.195622 0.5
29 1 0.614196 0.212788 0.5
95 1 0.583874 0.159117 0.5
102 1 0.509992 0.208835 0.5
206 1 0.507305 0.321642 0.5
141 1 0.54254 0.273586 0.5
147 1 0.575973 0.349062 0.5
302 1 0.536396 0.348126 0.5
184 1 0.599605 0.279511 0.5
274 1 0.616981 0.332974 0.5
148 1 0.500757 0.472419 0.5
338 1 0.520097 0.382711 0.5
9 1 0.548675 0.443881 0.5
240 1 0.59415 0.450705 0.5
107 1 0.592237 0.393695 0.5
65 1 0.619996 0.421667 0.5
343 1 0.572125 0.594561 0.5
96 1 0.512707 0.570639 0.5
300 1 0.560557 0.541136 0.5
353 1 0.527823 0.610962 0.5
12 1 0.509878 0.510993 0.5
278 1 0.5944 0.501776 0.5
199 1 0.510513 0.687228 0.5
267 1 0.561509 0.66154 0.5
32 1 0.551319 0.742073 0.5
398 1 0.499144 0.726749 0.5
269 1 0.596092 0.694812 0.5
291 1 0.610692 0.634639 0.5
188 1 0.544386 0.824364 0.5
342 1 0.553573 0.87028 0.5
287 1 0.590915 0.750039 0.5
222 1 0.507634 0.848087 0.5
299 1 0.542374 0.782295 0.5
268 1 0.604651 0.810489 0.5
379 1 0.605016 0.8683 0.5
168 1 0.585842 0.91899 0.5
31 1 0.61273 0.95846 0.5
36 1 0.54438 0.911987 0.5
315 1 0.589854 0.993419 0.5
386 1 0.559402 0.945715 0.5
248 1 0.517601 0.974445 0.5
272 1 0.705492 0.0861772 0.5
126 1 0.64096 -0.000501782 0.5
346 1 0.721382 0.0422068 0.5
325 1 0.681411 0.0196024 0.5
54 1 0.660493 0.079094 0.5
366 1 0.624394 0.101403 0.5
309 1 0.73853 0.150725 0.5
348 1 0.724995 0.1863 0.5
63 1 0.705686 0.12804 0.5
256 1 0.690962 0.212627 0.5
93 1 0.7462 0.222448 0.5
69 1 0.661741 0.140782 0.5
201 1 0.650456 0.19188 0.5
242 1 0.66385 0.240792 0.5
328 1 0.704692 0.247671 0.5
214 1 0.695159 0.293619 0.5
20 1 0.64632 0.291907 0.5
155 1 0.706387 0.335328 0.5
123 1 0.635127 0.371372 0.5
47 1 0.729571 0.279517 0.5
151 1 0.724444 0.395974 0.5
13 1 0.644024 0.462889 0.5
377 1 0.684891 0.448546 0.5
263 1 0.707298 0.479655 0.5
323 1 0.685783 0.378838 0.5
234 1 0.725792 0.607009 0.5
108 1 0.713126 0.564164 0.5
375 1 0.684223 0.614652 0.5
16 1 0.641172 0.613522 0.5
52 1 0.747153 0.528622 0.5
261 1 0.673296 0.50189 0.5
132 1 0.669197 0.572046 0.5
145 1 0.632874 0.57512 0.5
114 1 0.627481 0.533139 0.5
53 1 0.719549 0.646916 0.5
103 1 0.680405 0.658709 0.5
160 1 0.659695 0.703839 0.5
178 1 0.668664 0.7485 0.5
194 1 0.643843 0.668683 0.5
172 1 0.725167 0.709619 0.5
253 1 0.627125 0.735699 0.5
229 1 0.747461 0.677507 0.5
223 1 0.666715 0.8177 0.5
66 1 0.722735 0.771915 0.5
11 1 0.742915 0.818694 0.5
40 1 0.712258 0.945329 0.5
70 1 0.688093 0.982874 0.5
310 1 0.671851 0.945325 0.5
106 1 0.733877 0.977806 0.5
179 1 0.639553 0.883429 0.5
99 1 0.735764 0.885728 0.5
94 1 0.630353 0.923666 0.5
244 1 0.69622 0.8943 0.5
385 1 0.85916 0.115173 0.5
303 1 0.861852 0.0217764 0.5
257 1 0.76139 0.0653267 0.5
157 1 0.825434 0.0934601 0.5
124 1 0.824206 0.0456412 0.5
77 1 0.759634 0.108571 0.5
3 1 0.770578 0.0242756 0.5
334 1 0.815881 0.00234389 0.5
239 1 0.85412 0.158403 0.5
170 1 0.819708 0.190163 0.5
49 1 0.790497 0.230379 0.5
87 1 0.803665 0.132211 0.5
161 1 0.783531 0.181556 0.5
81 1 0.865099 0.204401 0.5
137 1 0.840411 0.249721 0.5
376 1 0.769572 0.330168 0.5
327 1 0.78108 0.288608 0.5
71 1 0.76187 0.370942 0.5
50 1 0.8554 0.358961 0.5
391 1 0.816829 0.329036 0.5
30 1 0.855591 0.321532 0.5
351 1 0.857319 0.474931 0.5
245 1 0.769904 0.422698 0.5
209 1 0.809078 0.462067 0.5
354 1 0.761112 0.474911 0.5
306 1 0.839379 0.420571 0.5
243 1 0.864275 0.527222 0.5
290 1 0.791014 0.560089 0.5
219 1 0.852722 0.577829 0.5
128 1 0.825204 0.613498 0.5
217 1 0.753818 0.575087 0.5
154 1 0.823189 0.668905 0.5
82 1 0.844524 0.749617 0.5
169 1 0.82458 0.71101 0.5
75 1 0.781203 0.695807 0.5
361 1 0.794526 0.741128 0.5
399 1 0.861633 0.696206 0.5
238 1 0.863734 0.646302 0.5
111 1 0.794404 0.645297 0.5
344 1 0.784461 0.864319 0.5
91 1 0.832016 0.792125 0.5
109 1 0.789158 0.822451 0.5
220 1 0.858992 0.835601 0.5
86 1 0.819648 0.848639 0.5
59 1 0.779617 0.780808 0.5
216 1 0.787579 0.908077 0.5
333 1 0.837502 0.880912 0.5
84 1 0.758127 0.932159 0.5
134 1 0.783464 0.961124 0.5
142 1 0.826123 0.936702 0.5
213 1 0.911253 0.0465411 0.5
163 1 0.902677 0.0967333 0.5
280 1 0.940083 0.093888 0.5
271 1 0.96915 0.0376277 0.5
208 1 0.973423 0.0748434 0.5
115 1 0.894333 0.00133297 0.5
285 1 0.937879 0.00761017 0.5
360 1 0.964982 0.234635 0.5
345 1 0.941379 0.185958 0.5
180 1 0.999165 0.194877 0.5
264 1 0.927297 0.224788 0.5
296 1 0.906663 0.148605 0.5
189 1 0.900853 0.192906 0.5
381 1 0.979922 0.363721 0.5
395 1 0.911277 0.277338 0.5
210 1 0.971511 0.283599 0.5
359 1 0.912385 0.346668 0.5
380 1 0.962893 0.409025 0.5
370 1 0.893056 0.380191 0.5
317 1 0.893325 0.430105 0.5
149 1 0.946053 0.450292 0.5
143 1 0.964332 0.488832 0.5
241 1 0.901478 0.480948 0.5
311 1 0.878565 0.605732 0.5
129 1 0.96773 0.536568 0.5
158 1 0.890113 0.559736 0.5
7 1 0.976349 0.576604 0.5
193 1 0.933031 0.517143 0.5
100 1 0.924208 0.679352 0.5
228 1 0.962841 0.714903 0.5
33 1 0.970123 0.674643 0.5
45 1 0.912181 0.636621 0.5
187 1 0.949575 0.628442 0.5
374 1 0.993029 0.643046 0.5
335 1 0.989389 0.743727 0.5
326 1 0.939256 0.761661 0.5
185 1 0.879992 0.870351 0.5
281 1 0.969144 0.814193 0.5
250 1 0.893313 0.753889 0.5
165 1 0.896633 0.8205 0.5
175 1 0.936406 0.933844 0.5
392 1 0.935721 0.88576 0.5
390 1 0.895022 0.964517 0.5
397 1 0.900607 0.911873 0.5
5 1 0.998578 0.996321 0.5
