LAMMPS (15 Sep 2022)
OMP_NUM_THREADS environment is not set. Defaulting to 1 thread. (src/comm.cpp:98)
  using 1 OpenMP thread(s) per MPI task
# 2d WCA system, random initial configuration

#variable density equal 0.5
variable initial_temperature equal 3.0
variable final_temperature equal 0.1
variable dt equal 0.01
variable tau equal 100*${dt}
variable tau equal 100*0.01
variable thermo_time equal 50000*${dt}
variable thermo_time equal 50000*0.01
variable equil_steps equal 50000
variable run_steps equal 100000

units           lj
atom_style      atomic
dimension       2

lattice         sq ${density}
lattice         sq 0.5
Lattice spacing in x,y,z = 1.4142136 1.4142136 1.4142136
region          box block 0 20 0 20 -0.5 0.5
# number of atom types
create_box      1 box
Created orthogonal box = (0 0 -0.70710678) to (28.284271 28.284271 0.70710678)
  8 by 8 by 1 MPI processor grid
create_atoms    1 box
Created 400 atoms
  using lattice units in orthogonal box = (0 0 -0.70710678) to (28.284271 28.284271 0.70710678)
  create_atoms CPU = 0.001 seconds
mass 1 1.0

velocity all create ${initial_temperature} 25000
velocity all create 3 25000

pair_style      lj/cut 1.0
#type_1 type_2 epsilon sigma cutoff
pair_coeff      1 1 10.0 0.89089871814 1.0
pair_modify shift yes

timestep ${dt}
timestep 0.01
thermo ${thermo_time}
thermo 500

fix 1 all nvt temp ${initial_temperature} ${initial_temperature} ${tau}
fix 1 all nvt temp 3 ${initial_temperature} ${tau}
fix 1 all nvt temp 3 3 ${tau}
fix 1 all nvt temp 3 3 1
run ${equil_steps}
run 50000
Generated 0 of 0 mixed pair_coeff terms from geometric mixing rule
Neighbor list info ...
  update: every = 1 steps, delay = 0 steps, check = yes
  max neighbors/atom: 2000, page size: 100000
  master list distance cutoff = 1.3
  ghost atom cutoff = 1.3
  binsize = 0.65, bins = 44 44 3
  1 neighbor lists, perpetual/occasional/extra = 1 0 0
  (1) pair lj/cut, perpetual
      attributes: half, newton on
      pair build: half/bin/atomonly/newton
      stencil: half/bin/2d
      bin: standard
Per MPI rank memory allocation (min/avg/max) = 3.047 | 3.047 | 3.047 Mbytes
   Step          Temp          E_pair         E_mol          TotEng         Press     
         0   3              0              0              2.9925         1.49625      
       500   2.9204778      0.26376087     0              3.1769375      3.7291204    
      1000   2.9449875      0.12067678     0              3.0583018      2.9173536    
      1500   2.9459373      0.25867176     0              3.1972442      3.7212346    
      2000   2.9809263      0.21806099     0              3.191535       3.6821164    
      2500   3.0351728      0.19007297     0              3.2176578      3.4059784    
      3000   2.9695446      0.2823957      0              3.2445164      4.0938137    
      3500   3.0801315      0.22055594     0              3.2929871      3.5893655    
      4000   3.3055618      0.18368765     0              3.4809855      3.4280834    
      4500   3.0922259      0.15489881     0              3.2393942      3.2312602    
      5000   3.0245146      0.17734105     0              3.1942943      3.3526422    
      5500   2.9217823      0.17951935     0              3.0939972      3.4443381    
      6000   2.7945804      0.19900768     0              2.9866017      3.3899017    
      6500   2.9358611      0.15118222     0              3.0797036      2.9917454    
      7000   2.6869832      0.20017433     0              2.88044        3.4069575    
      7500   2.8518016      0.25885872     0              3.1035308      3.6984427    
      8000   3.0307618      0.19809518     0              3.2212801      3.4077232    
      8500   3.0726241      0.27783931     0              3.3427819      4.0668893    
      9000   3.2081506      0.26342963     0              3.4635598      3.9997181    
      9500   3.0418414      0.14997843     0              3.1842153      3.1356305    
     10000   3.0082478      0.16203205     0              3.1627592      3.2895735    
     10500   2.8961109      0.23369484     0              3.1225654      3.5565142    
     11000   2.8702808      0.16408838     0              3.0271935      3.0590172    
     11500   2.7749944      0.22737492     0              2.9954318      3.4337923    
     12000   2.7741345      0.14671784     0              2.913917       2.9154772    
     12500   3.04249        0.19475425     0              3.2296381      3.4369466    
     13000   3.0106606      0.2150866      0              3.2182206      3.638659     
     13500   3.0951086      0.20715122     0              3.294522       3.5583067    
     14000   3.0000724      0.25314469     0              3.2457169      3.8898974    
     14500   3.1682784      0.20522648     0              3.3655842      3.5528715    
     15000   3.0263428      0.23208962     0              3.2508665      3.7413513    
     15500   2.948233       0.2434179      0              3.1842803      3.7426531    
     16000   2.967977       0.1743146      0              3.1348717      3.3026145    
     16500   2.8033934      0.260007       0              3.0563919      3.7654473    
     17000   2.7574102      0.16211317     0              2.9126298      3.0031061    
     17500   2.7096685      0.14001608     0              2.8429104      2.9362566    
     18000   2.8760681      0.24215714     0              3.1110351      3.535258     
     18500   3.0258688      0.17390585     0              3.19221        3.1713566    
     19000   3.1228174      0.16855124     0              3.2835616      3.291421     
     19500   3.0677048      0.23851279     0              3.2985483      3.7881911    
     20000   3.1181764      0.23144002     0              3.341821       3.8327468    
     20500   3.2111548      0.19990755     0              3.4030345      3.5099727    
     21000   3.1260705      0.22452435     0              3.3427797      3.7024518    
     21500   2.9904905      0.25416581     0              3.2371801      3.8119102    
     22000   2.9636942      0.23306071     0              3.1893457      3.6413849    
     22500   2.9330397      0.27928665     0              3.2049937      3.9503808    
     23000   3.0037586      0.24770719     0              3.2439564      3.8918887    
     23500   3.2462533      0.20857022     0              3.4467079      3.5532912    
     24000   3.4038227      0.18573238     0              3.5810455      3.4123374    
     24500   3.028515       0.32811164     0              3.3490554      4.385158     
     25000   3.1831669      0.16226454     0              3.3374735      3.2587778    
     25500   3.1265004      0.31490627     0              3.4335904      4.4462427    
     26000   2.7998077      0.22400476     0              3.016813       3.6581005    
     26500   2.9050563      0.14825069     0              3.0460443      3.0367054    
     27000   2.8949004      0.13830488     0              3.025968       2.9442827    
     27500   2.9454111      0.17900174     0              3.1170494      3.2810129    
     28000   2.9337501      0.164634       0              3.0910498      3.2359741    
     28500   2.9682936      0.17807814     0              3.138951       3.3803084    
     29000   2.8700967      0.23857482     0              3.1014962      3.7537901    
     29500   3.3630352      0.17399257     0              3.5286202      3.4906759    
     30000   3.1083401      0.23941545     0              3.3399847      3.7716145    
     30500   3.212426       0.17487804     0              3.379273       3.3813892    
     31000   3.0669212      0.26593959     0              3.3251935      4.2202661    
     31500   3.1026774      0.19545084     0              3.2903715      3.5855481    
     32000   2.9801334      0.23575741     0              3.2084404      3.6326467    
     32500   2.7773493      0.24441004     0              3.0148159      3.7252256    
     33000   2.9594859      0.18600678     0              3.138094       3.4549583    
     33500   2.8944151      0.22507889     0              3.1122579      3.6996289    
     34000   2.9476044      0.1658118      0              3.1060472      3.0953005    
     34500   2.8900483      0.28245915     0              3.1652823      4.0582703    
     35000   2.8517002      0.20681135     0              3.0513823      3.4228744    
     35500   2.9717128      0.25181749     0              3.216101       3.7475226    
     36000   3.0265407      0.2083995      0              3.2273738      3.547224     
     36500   3.1363916      0.2098725      0              3.3384231      3.5062356    
     37000   3.040915       0.27606826     0              3.309381       3.9387351    
     37500   3.1644964      0.20231087     0              3.358896       3.4721087    
     38000   3.0943609      0.24264519     0              3.3292702      3.6727169    
     38500   3.0555206      0.21221962     0              3.2601014      3.739009     
     39000   2.9838061      0.25191413     0              3.2282607      3.7971688    
     39500   2.6945547      0.18519828     0              2.8730166      3.3484378    
     40000   2.889235       0.15787194     0              3.0398839      3.1055806    
     40500   2.8759117      0.20592587     0              3.0746478      3.4123086    
     41000   2.8836061      0.26335437     0              3.1397515      3.9511452    
     41500   2.905315       0.17909474     0              3.0771465      3.2736763    
     42000   3.0042859      0.21395558     0              3.2107307      3.569906     
     42500   3.0068416      0.16959772     0              3.1689222      3.2805219    
     43000   2.9996283      0.19434763     0              3.1864768      3.4512029    
     43500   3.0725089      0.20854281     0              3.2733704      3.4879286    
     44000   3.069003       0.1421982      0              3.2035287      3.0873367    
     44500   3.0016105      0.27637782     0              3.2704843      3.8501063    
     45000   2.9651514      0.23956489     0              3.1973034      3.7671188    
     45500   3.0393354      0.24207789     0              3.273815       3.8234631    
     46000   2.9941074      0.21346723     0              3.2000893      3.6333401    
     46500   3.29069        0.18344652     0              3.4659098      3.4095856    
     47000   3.1053956      0.25264854     0              3.3502807      3.9619486    
     47500   3.1433597      0.21958304     0              3.3550844      3.7210622    
     48000   2.96106        0.29044026     0              3.2440976      4.0165869    
     48500   3.1294447      0.3402168      0              3.4618379      4.5633584    
     49000   3.1397972      0.25439758     0              3.3863453      3.9770395    
     49500   3.2191813      0.19580675     0              3.4069401      3.5475869    
     50000   3.1514658      0.17500294     0              3.3185901      3.3433137    
Loop time of 1.51194 on 64 procs for 50000 steps with 400 atoms

Performance: 28572532.590 tau/day, 33070.061 timesteps/s, 13.228 Matom-step/s
99.4% CPU use with 64 MPI tasks x 1 OpenMP threads

MPI task timing breakdown:
Section |  min time  |  avg time  |  max time  |%varavg| %total
---------------------------------------------------------------
Pair    | 0.0068496  | 0.0073829  | 0.0082357  |   0.3 |  0.49
Neigh   | 0.014485   | 0.015253   | 0.01627    |   0.3 |  1.01
Comm    | 0.63508    | 0.73111    | 0.83117    |   5.5 | 48.36
Output  | 0.0035411  | 0.0036512  | 0.0046311  |   0.2 |  0.24
Modify  | 0.26944    | 0.43182    | 0.55587    |  10.8 | 28.56
Other   |            | 0.3227     |            |       | 21.35

Nlocal:           6.25 ave          10 max           3 min
Histogram: 1 7 12 0 16 16 0 8 3 1
Nghost:        12.1719 ave          16 max           8 min
Histogram: 2 4 9 7 0 12 12 12 4 2
Neighs:         6.1875 ave          16 max           1 min
Histogram: 6 10 12 10 11 5 7 1 0 2

Total # of neighbors = 396
Ave neighs/atom = 0.99
Neighbor list builds = 16887
Dangerous builds = 0

unfix 1
dump           1 all atom ${run_steps} 2dWCA_T${final_temperature}_d${density}_N${run_steps}.lammpstrj
dump           1 all atom 100000 2dWCA_T${final_temperature}_d${density}_N${run_steps}.lammpstrj
dump           1 all atom 100000 2dWCA_T0.1_d${density}_N${run_steps}.lammpstrj
dump           1 all atom 100000 2dWCA_T0.1_d0.5_N${run_steps}.lammpstrj
dump           1 all atom 100000 2dWCA_T0.1_d0.5_N100000.lammpstrj
dump           2 all dcd ${thermo_time} 2dWCA_T${final_temperature}_d${density}_N${run_steps}.dcd
dump           2 all dcd 500 2dWCA_T${final_temperature}_d${density}_N${run_steps}.dcd
dump           2 all dcd 500 2dWCA_T0.1_d${density}_N${run_steps}.dcd
dump           2 all dcd 500 2dWCA_T0.1_d0.5_N${run_steps}.dcd
dump           2 all dcd 500 2dWCA_T0.1_d0.5_N100000.dcd
fix 1 all nvt temp ${initial_temperature} ${final_temperature} ${tau}
fix 1 all nvt temp 3 ${final_temperature} ${tau}
fix 1 all nvt temp 3 0.1 ${tau}
fix 1 all nvt temp 3 0.1 1

run ${run_steps}
run 100000
Generated 0 of 0 mixed pair_coeff terms from geometric mixing rule
Per MPI rank memory allocation (min/avg/max) = 3.068 | 3.068 | 3.068 Mbytes
   Step          Temp          E_pair         E_mol          TotEng         Press     
     50000   3.1514658      0.17500294     0              3.3185901      3.3433137    
     50500   3.1378399      0.20170023     0              3.3316955      3.5657182    
     51000   2.8464126      0.1969038      0              3.0362004      3.3849208    
     51500   2.7576002      0.21479554     0              2.9655018      3.5110313    
     52000   2.7291762      0.18539057     0              2.9077439      3.3430437    
     52500   2.7365591      0.26655182     0              2.9962695      3.8259121    
     53000   2.8938693      0.16319649     0              3.0498311      3.1516068    
     53500   2.952817       0.16004368     0              3.1054786      3.0894928    
     54000   2.9178217      0.19362506     0              3.1041522      3.3037151    
     54500   3.0561592      0.16960801     0              3.2181269      3.430368     
     55000   2.906247       0.21470201     0              3.1136834      3.4087446    
     55500   2.9268338      0.24223726     0              3.1617539      3.7841635    
     56000   2.7883178      0.1679263      0              2.9492733      3.2704525    
     56500   2.6365368      0.28123741     0              2.9111828      3.741593     
     57000   2.7010156      0.21363319     0              2.9078963      3.4165634    
     57500   2.6202015      0.24372425     0              2.8573752      3.6228264    
     58000   2.6483372      0.1500011      0              2.7917175      2.8623305    
     58500   2.6880578      0.2317659      0              2.9131036      3.5795682    
     59000   2.7950209      0.2339488      0              3.0219821      3.5724872    
     59500   2.7167039      0.34101065     0              3.0509228      4.2670061    
     60000   2.7657061      0.18252832     0              2.9413202      3.2537294    
     60500   2.8283947      0.21040197     0              3.0317256      3.3468634    
     61000   2.8439973      0.19733852     0              3.0342258      3.3789439    
     61500   2.7994142      0.22898098     0              3.0213966      3.6973425    
     62000   2.4839382      0.16025323     0              2.6379816      2.9874678    
     62500   2.5529421      0.1436027      0              2.6901624      2.7382429    
     63000   2.5985757      0.15599051     0              2.7480698      2.9972524    
     63500   2.4633432      0.2639801      0              2.721165       3.6185286    
     64000   2.5031912      0.19602247     0              2.6929557      3.246098     
     64500   2.3320634      0.12527571     0              2.4515089      2.600333     
     65000   2.3472864      0.1717821      0              2.5132003      3.1103802    
     65500   2.4910285      0.24560751     0              2.7304084      3.4272713    
     66000   2.7325088      0.099181244    0              2.8248587      2.5062555    
     66500   2.5443988      0.19266152     0              2.7306994      3.0565534    
     67000   2.7146306      0.14673133     0              2.8545753      2.9683269    
     67500   2.5694579      0.11682781     0              2.679862       2.6669971    
     68000   2.6392547      0.17974764     0              2.8124042      3.2332212    
     68500   2.4596658      0.21365278     0              2.6671694      3.3359224    
     69000   2.6071728      0.12204699     0              2.7227019      2.636042     
     69500   2.5174181      0.188738       0              2.6998626      3.176239     
     70000   2.3704455      0.24604859     0              2.610568       3.4480866    
     70500   2.4155792      0.15365766     0              2.563198       2.7838682    
     71000   2.3569135      0.17852442     0              2.5295456      2.9938854    
     71500   2.1728151      0.1268726      0              2.2942556      2.6428615    
     72000   2.2489646      0.13782459     0              2.3811668      2.6941581    
     72500   2.2923792      0.1463343      0              2.4329826      2.6894955    
     73000   2.2845077      0.17400561     0              2.4528021      2.9888497    
     73500   2.1822952      0.13516042     0              2.3119999      2.4565256    
     74000   2.3428559      0.083327756    0              2.4203265      2.1918815    
     74500   2.2762285      0.17866338     0              2.4492013      2.9489712    
     75000   2.3511634      0.18862618     0              2.5339117      2.9621397    
     75500   2.4634546      0.21645969     0              2.6737557      3.2289751    
     76000   2.3628438      0.19108747     0              2.5480242      2.9412501    
     76500   2.290553       0.12281139     0              2.407638       2.5182382    
     77000   2.1119867      0.17798466     0              2.2846914      2.899578     
     77500   2.01909        0.17292474     0              2.1869671      2.8471615    
     78000   1.8967718      0.12578865     0              2.0178185      2.4478088    
     78500   2.0882755      0.093481461    0              2.1765362      2.0590028    
     79000   2.1436022      0.11221565     0              2.2504589      2.3642048    
     79500   2.0209082      0.16220103     0              2.1780569      2.66146      
     80000   2.0813142      0.15279402     0              2.2289049      2.6626682    
     80500   2.143306       0.16859328     0              2.306541       2.8974721    
     81000   2.2677919      0.18539592     0              2.4475184      3.1064445    
     81500   2.213295       0.099783941    0              2.3075457      2.4486443    
     82000   2.0786685      0.12172497     0              2.1951968      2.4633141    
     82500   2.009341       0.098154846    0              2.1024725      2.2423405    
     83000   1.9609804      0.088393829    0              2.0444717      2.0856047    
     83500   1.9795444      0.13847253     0              2.113068       2.5538947    
     84000   1.9054699      0.1240045      0              2.0247107      2.3257098    
     84500   1.9732764      0.14632533     0              2.1146685      2.5849538    
     85000   2.0471956      0.13527845     0              2.177356       2.6037261    
     85500   1.9943197      0.13362399     0              2.1229579      2.5632909    
     86000   2.050151       0.14482386     0              2.1898495      2.6468073    
     86500   2.1024558      0.13173312     0              2.2289328      2.5611552    
     87000   2.0496432      0.12609678     0              2.1706159      2.5283962    
     87500   2.0019275      0.081703967    0              2.0786267      2.0414773    
     88000   1.9971486      0.11591343     0              2.1080691      2.3690443    
     88500   1.9364389      0.12160396     0              2.0532018      2.3695729    
     89000   1.8779579      0.1388853      0              2.0121483      2.4468078    
     89500   1.7636103      0.083957706    0              1.843159       1.8826835    
     90000   1.8528584      0.065752052    0              1.9139783      1.7150352    
     90500   1.7857087      0.074718662    0              1.8559631      1.8231152    
     91000   1.8830942      0.077828788    0              1.9562152      1.9353461    
     91500   1.9860415      0.14455057     0              2.125627       2.44624      
     92000   1.9180533      0.14168947     0              2.0549477      2.5189365    
     92500   1.7145711      0.11082128     0              1.8211059      2.0308311    
     93000   1.6531305      0.10857745     0              1.7575752      2.2447002    
     93500   1.6409574      0.10274097     0              1.739596       1.9450531    
     94000   1.5241124      0.13808258     0              1.6583847      2.2219159    
     94500   1.6895953      0.10554549     0              1.7909168      2.0577431    
     95000   1.7359632      0.10768649     0              1.8393098      2.2187199    
     95500   1.7844078      0.072208762    0              1.8521555      1.8601234    
     96000   1.7761221      0.10915067     0              1.8808325      2.1606521    
     96500   1.5978801      0.125881       0              1.7197664      2.3237365    
     97000   1.534133       0.14693851     0              1.6772362      2.4188459    
     97500   1.5614223      0.095607092    0              1.6531259      1.9774138    
     98000   1.5413377      0.066999801    0              1.6044842      1.7122278    
     98500   1.4499295      0.08829989     0              1.5346046      1.7793011    
     99000   1.490545       0.090667018    0              1.5774856      1.7752521    
     99500   1.5220266      0.088320685    0              1.6065422      1.8873393    
    100000   1.4129965      0.10068295     0              1.5101469      1.8714002    
    100500   1.6226497      0.064228152    0              1.6828212      1.6528851    
    101000   1.592776       0.096956847    0              1.6857509      1.9676214    
    101500   1.6024276      0.087934054    0              1.6863556      1.9030642    
    102000   1.4855578      0.088207752    0              1.5700516      1.8936718    
    102500   1.4032506      0.10004628     0              1.4997888      1.7821119    
    103000   1.3272776      0.08520283     0              1.4091623      1.7860938    
    103500   1.3926946      0.099963068    0              1.489176       1.9271786    
    104000   1.3705331      0.056022402    0              1.4231292      1.5001381    
    104500   1.2300396      0.073842115    0              1.3008066      1.5981232    
    105000   1.3417145      0.05325083     0              1.391611       1.43201      
    105500   1.3762222      0.071523129    0              1.4443048      1.6658211    
    106000   1.3372118      0.11363852     0              1.4475073      1.9642394    
    106500   1.4158405      0.1206967      0              1.5329976      2.0828784    
    107000   1.4312101      0.055942221    0              1.4835743      1.5801872    
    107500   1.4223177      0.073842624    0              1.4926045      1.6570495    
    108000   1.377093       0.055689283    0              1.4293396      1.4301501    
    108500   1.3511179      0.063450609    0              1.4111907      1.5487206    
    109000   1.2519482      0.075026232    0              1.3238445      1.6498327    
    109500   1.1705132      0.070446488    0              1.2380334      1.4830295    
    110000   1.2126873      0.066805322    0              1.2764609      1.5074257    
    110500   1.2608402      0.055176731    0              1.3128648      1.4155629    
    111000   1.2526826      0.081106981    0              1.3306579      1.6106737    
    111500   1.2716719      0.087863661    0              1.3563564      1.6255642    
    112000   1.2809536      0.067416611    0              1.3451678      1.5355403    
    112500   1.2050111      0.073596946    0              1.2755955      1.500741     
    113000   1.1719297      0.047411712    0              1.2164116      1.2559104    
    113500   1.0668184      0.054161781    0              1.1183131      1.2188159    
    114000   1.1018711      0.068635621    0              1.167752       1.4457592    
    114500   1.1711175      0.089506154    0              1.2576959      1.6702723    
    115000   1.1349498      0.087099232    0              1.2192116      1.6180791    
    115500   1.174104       0.042700022    0              1.2138687      1.2425093    
    116000   1.0078331      0.064356867    0              1.0696704      1.3866825    
    116500   1.0153971      0.041651416    0              1.0545101      1.1517638    
    117000   1.0305694      0.062818315    0              1.0908113      1.3803036    
    117500   0.95922054     0.052334868    0              1.0091574      1.2479605    
    118000   0.99910163     0.05013193     0              1.0467358      1.216249     
    118500   1.0115173      0.035396814    0              1.0443854      1.1060899    
    119000   1.0278663      0.055815135    0              1.0811118      1.2464271    
    119500   1.0623813      0.090792226    0              1.1505176      1.4894798    
    120000   1.060093       0.039720478    0              1.0971632      1.116166     
    120500   0.9294394      0.044102967    0              0.97121877     1.0943913    
    121000   0.89028018     0.043430021    0              0.9314845      1.0347682    
    121500   0.8973226      0.043048379    0              0.93812767     1.0942604    
    122000   0.91711865     0.041611514    0              0.95643737     1.0706668    
    122500   0.9385225      0.065430069    0              1.0016063      1.2864564    
    123000   0.91917512     0.045339689    0              0.96221687     1.165113     
    123500   0.91319982     0.026835003    0              0.93775182     0.9270489    
    124000   0.9297465      0.03878196     0              0.96620409     1.0735008    
    124500   0.80471799     0.04037714     0              0.84308333     1.0382409    
    125000   0.80552684     0.022691699    0              0.82620472     0.83351707   
    125500   0.78201312     0.047524388    0              0.82758247     1.1126495    
    126000   0.79109293     0.063000066    0              0.85211527     1.2390654    
    126500   0.78219861     0.038799085    0              0.8190422      0.9904487    
    127000   0.81114426     0.042153641    0              0.85127004     1.0375689    
    127500   0.76618544     0.045368031    0              0.80963801     1.0479317    
    128000   0.74998582     0.034841877    0              0.78295274     0.99204155   
    128500   0.74571404     0.04877601     0              0.79262577     1.07222      
    129000   0.68661089     0.036566371    0              0.72146074     0.9550009    
    129500   0.6733344      0.027941484    0              0.69959255     0.82429028   
    130000   0.65727442     0.022457392    0              0.67808863     0.74358735   
    130500   0.59799285     0.028304566    0              0.62480243     0.76119239   
    131000   0.6154907      0.027041692    0              0.64099366     0.77765231   
    131500   0.64940539     0.02933642     0              0.67711829     0.8610427    
    132000   0.65528959     0.029090849    0              0.68274221     0.83589179   
    132500   0.63923552     0.020912693    0              0.65855012     0.75949539   
    133000   0.61019665     0.019749583    0              0.62842074     0.72933213   
    133500   0.62460358     0.022353961    0              0.64539603     0.72268502   
    134000   0.57459775     0.021583172    0              0.59474442     0.7231599    
    134500   0.55896255     0.023942296    0              0.58150744     0.70484605   
    135000   0.52895482     0.030414721    0              0.55804715     0.75697537   
    135500   0.51367035     0.014367039    0              0.52675322     0.57237117   
    136000   0.47308895     0.022862576    0              0.49476881     0.67607461   
    136500   0.44902979     0.018572512    0              0.46647973     0.62441934   
    137000   0.47044035     0.017933675    0              0.48719793     0.56828512   
    137500   0.46977687     0.026706577    0              0.49530901     0.64975902   
    138000   0.46345786     0.019050262    0              0.48134948     0.61037618   
    138500   0.45816982     0.01795272     0              0.47497711     0.56165884   
    139000   0.39620323     0.017219542    0              0.41243227     0.53817462   
    139500   0.37511563     0.01392173     0              0.38809957     0.49534378   
    140000   0.38085842     0.0092879397   0              0.38919422     0.4048275    
    140500   0.36212762     0.014294453    0              0.37551675     0.43358301   
    141000   0.36180428     0.012706455    0              0.37360622     0.45956021   
    141500   0.36883049     0.010418609    0              0.37832702     0.42615763   
    142000   0.36201462     0.0098361614   0              0.37094574     0.45048275   
    142500   0.3176171      0.015990952    0              0.332814       0.50911702   
    143000   0.29365263     0.007436395    0              0.30035489     0.33548395   
    143500   0.27865311     0.010323601    0              0.28828008     0.38240013   
    144000   0.27108325     0.00646892     0              0.27687446     0.30081833   
    144500   0.25945051     0.010380321    0              0.26918221     0.39914485   
    145000   0.24232821     0.0077778811   0              0.24950027     0.28613825   
    145500   0.23677616     0.0049608793   0              0.2411451      0.25592168   
    146000   0.23277293     0.0033686351   0              0.23555963     0.23798901   
    146500   0.20205758     0.0070751039   0              0.20862754     0.29292554   
    147000   0.18783666     0.0072427751   0              0.19460985     0.31064905   
    147500   0.16918165     0.0048616486   0              0.17362034     0.22318979   
    148000   0.14763888     0.0041851078   0              0.15145489     0.20604254   
    148500   0.1456718      0.0034434336   0              0.14875105     0.17517757   
    149000   0.14311921     0.0054875955   0              0.14824901     0.22651651   
    149500   0.10800284     0.0042141943   0              0.11194702     0.1795045    
    150000   0.099788536    0.0016230573   0              0.10116212     0.11536312   
Loop time of 3.00107 on 64 procs for 100000 steps with 400 atoms

Performance: 28789710.619 tau/day, 33321.424 timesteps/s, 13.329 Matom-step/s
99.4% CPU use with 64 MPI tasks x 1 OpenMP threads

MPI task timing breakdown:
Section |  min time  |  avg time  |  max time  |%varavg| %total
---------------------------------------------------------------
Pair    | 0.012684   | 0.013686   | 0.015537   |   0.4 |  0.46
Neigh   | 0.021366   | 0.022349   | 0.023975   |   0.4 |  0.74
Comm    | 1.1252     | 1.2999     | 1.4947     |   8.4 | 43.31
Output  | 0.17395    | 0.17414    | 0.17584    |   0.1 |  5.80
Modify  | 0.50729    | 0.84523    | 1.0675     |  15.5 | 28.16
Other   |            | 0.6458     |            |       | 21.52

Nlocal:           6.25 ave          10 max           2 min
Histogram: 1 1 4 11 0 20 16 8 2 1
Nghost:        12.4219 ave          19 max           9 min
Histogram: 4 3 10 17 17 8 2 1 1 1
Neighs:              6 ave          14 max           0 min
Histogram: 1 3 16 8 10 18 1 5 1 1

Total # of neighbors = 384
Ave neighs/atom = 0.96
Neighbor list builds = 24762
Dangerous builds = 0
Total wall time: 0:00:04
