ITEM: TIMESTEP
100000
ITEM: NUMBER OF ATOMS
400
ITEM: BOX BOUNDS pp pp pp
0.0000000000000000e+00 1.9069251784911849e+01
0.0000000000000000e+00 1.9069251784911849e+01
-4.7673129462279618e-01 4.7673129462279618e-01
ITEM: ATOMS id type xs ys zs
5 1 0.0804365 0.0720588 0.5
4 1 0.0621118 0.0173072 0.5
6 1 0.0241239 0.0497201 0.5
64 1 0.0348622 0.100178 0.5
8 1 0.116527 0.0350339 0.5
59 1 0.00989224 0.00435214 0.5
12 1 0.0838239 0.12146 0.5
16 1 0.0663848 0.215024 0.5
13 1 0.0157234 0.20194 0.5
14 1 0.0440453 0.153493 0.5
17 1 0.100925 0.177579 0.5
73 1 0.117194 0.235385 0.5
78 1 0.0919771 0.317608 0.5
19 1 0.0761343 0.270225 0.5
22 1 0.0341672 0.302197 0.5
20 1 0.0490595 0.355803 0.5
372 1 0.0285935 0.251769 0.5
23 1 0.0138052 0.394051 0.5
377 1 0.0766944 0.475959 0.5
378 1 0.062467 0.417586 0.5
24 1 0.098851 0.374191 0.5
380 1 0.0257104 0.458828 0.5
25 1 0.113435 0.431381 0.5
386 1 0.0159502 0.598824 0.5
33 1 0.09126 0.524266 0.5
83 1 0.100612 0.580606 0.5
32 1 0.0530922 0.564014 0.5
39 1 0.0627678 0.617995 0.5
37 1 0.0410954 0.511723 0.5
35 1 0.00356405 0.548457 0.5
34 1 0.0220709 0.657227 0.5
88 1 0.086016 0.719603 0.5
85 1 0.0340388 0.706144 0.5
137 1 0.074499 0.669895 0.5
86 1 0.115211 0.630009 0.5
143 1 0.118694 0.837152 0.5
89 1 0.0495862 0.767198 0.5
140 1 0.0962287 0.784818 0.5
41 1 0.0124477 0.80634 0.5
44 1 0.0615093 0.823251 0.5
45 1 0.0268014 0.860249 0.5
36 1 0.00189561 0.753242 0.5
48 1 0.0400208 0.91568 0.5
2 1 0.0977585 0.979567 0.5
60 1 0.0507504 0.965625 0.5
52 1 0.0892301 0.929842 0.5
90 1 0.0747405 0.874502 0.5
91 1 0.12435 0.89272 0.5
18 1 0.178956 0.101681 0.5
65 1 0.207097 0.00947588 0.5
3 1 0.16591 0.0512399 0.5
66 1 0.215152 0.0629628 0.5
116 1 0.230351 0.116198 0.5
57 1 0.157129 0.00101939 0.5
9 1 0.131888 0.0876864 0.5
67 1 0.132322 0.137913 0.5
74 1 0.200157 0.211334 0.5
21 1 0.183643 0.155911 0.5
15 1 0.149284 0.194671 0.5
72 1 0.234511 0.168232 0.5
71 1 0.249016 0.226819 0.5
75 1 0.167854 0.248702 0.5
77 1 0.14495 0.338372 0.5
76 1 0.215202 0.262203 0.5
133 1 0.22866 0.3213 0.5
80 1 0.181464 0.303197 0.5
82 1 0.195554 0.360983 0.5
79 1 0.247454 0.374133 0.5
125 1 0.133186 0.284683 0.5
27 1 0.15181 0.391313 0.5
28 1 0.161877 0.442733 0.5
26 1 0.204945 0.40976 0.5
84 1 0.215437 0.468225 0.5
29 1 0.127817 0.490675 0.5
81 1 0.140868 0.544204 0.5
134 1 0.232338 0.517151 0.5
141 1 0.244592 0.573323 0.5
145 1 0.192822 0.557794 0.5
135 1 0.205297 0.6059 0.5
87 1 0.155467 0.599176 0.5
30 1 0.177611 0.506116 0.5
144 1 0.168332 0.649831 0.5
94 1 0.216458 0.659453 0.5
153 1 0.221739 0.716145 0.5
92 1 0.171676 0.708803 0.5
146 1 0.134601 0.739949 0.5
138 1 0.127489 0.682171 0.5
100 1 0.186894 0.756687 0.5
53 1 0.21493 0.861839 0.5
95 1 0.145382 0.795676 0.5
154 1 0.196818 0.814062 0.5
93 1 0.16571 0.85404 0.5
96 1 0.232433 0.775759 0.5
62 1 0.243276 0.971372 0.5
54 1 0.175163 0.907168 0.5
63 1 0.225247 0.914927 0.5
51 1 0.143477 0.952789 0.5
61 1 0.193898 0.954961 0.5
101 1 0.254235 0.0232338 0.5
104 1 0.305464 0.0352827 0.5
111 1 0.311605 0.0899961 0.5
160 1 0.355446 0.0449928 0.5
110 1 0.264322 0.0748743 0.5
112 1 0.363755 0.0954821 0.5
120 1 0.2976 0.239415 0.5
114 1 0.353361 0.239968 0.5
70 1 0.286677 0.18701 0.5
119 1 0.338223 0.193071 0.5
107 1 0.321431 0.144313 0.5
68 1 0.27364 0.135886 0.5
105 1 0.372658 0.15304 0.5
123 1 0.285698 0.34232 0.5
129 1 0.333915 0.363954 0.5
122 1 0.263946 0.278042 0.5
126 1 0.31513 0.283664 0.5
124 1 0.367972 0.287058 0.5
128 1 0.292186 0.395404 0.5
184 1 0.362478 0.479823 0.5
136 1 0.300907 0.445271 0.5
186 1 0.347724 0.417613 0.5
131 1 0.26749 0.482896 0.5
132 1 0.254257 0.43131 0.5
187 1 0.323969 0.512451 0.5
149 1 0.346701 0.616571 0.5
139 1 0.282003 0.541571 0.5
240 1 0.337523 0.561946 0.5
142 1 0.294862 0.589652 0.5
152 1 0.253383 0.624259 0.5
197 1 0.272627 0.734332 0.5
195 1 0.294803 0.646586 0.5
249 1 0.357134 0.666812 0.5
147 1 0.262338 0.683402 0.5
150 1 0.314261 0.700162 0.5
194 1 0.371109 0.716742 0.5
156 1 0.286079 0.786481 0.5
259 1 0.34854 0.855552 0.5
155 1 0.305405 0.841688 0.5
157 1 0.33902 0.803277 0.5
151 1 0.328784 0.748168 0.5
98 1 0.257066 0.829637 0.5
202 1 0.366737 0.905119 0.5
158 1 0.312274 0.896058 0.5
102 1 0.292125 0.985043 0.5
99 1 0.278054 0.934643 0.5
256 1 0.327442 0.94379 0.5
97 1 0.26437 0.880544 0.5
103 1 0.341149 0.993501 0.5
69 1 0.390176 0.00837134 0.5
199 1 0.443752 0.0213554 0.5
167 1 0.413779 0.109713 0.5
106 1 0.407348 0.0579356 0.5
164 1 0.459883 0.0707613 0.5
205 1 0.499299 0.0394832 0.5
208 1 0.467975 0.120157 0.5
171 1 0.491047 0.227714 0.5
165 1 0.434258 0.156107 0.5
113 1 0.390046 0.200804 0.5
108 1 0.439311 0.207862 0.5
207 1 0.480933 0.177152 0.5
117 1 0.403447 0.249848 0.5
118 1 0.453324 0.261755 0.5
179 1 0.426644 0.353597 0.5
177 1 0.417773 0.297654 0.5
121 1 0.466954 0.311064 0.5
176 1 0.479378 0.362281 0.5
127 1 0.379404 0.341642 0.5
185 1 0.416679 0.489271 0.5
130 1 0.443033 0.404023 0.5
231 1 0.398147 0.44274 0.5
182 1 0.449059 0.453639 0.5
232 1 0.492177 0.417122 0.5
181 1 0.392565 0.392842 0.5
238 1 0.429499 0.546248 0.5
245 1 0.489398 0.607385 0.5
237 1 0.474767 0.559631 0.5
189 1 0.4361 0.594734 0.5
234 1 0.465422 0.50892 0.5
148 1 0.387947 0.583459 0.5
183 1 0.379462 0.530445 0.5
250 1 0.416554 0.736562 0.5
243 1 0.451817 0.645749 0.5
192 1 0.458986 0.698569 0.5
191 1 0.411451 0.684395 0.5
193 1 0.398743 0.634264 0.5
304 1 0.496736 0.667059 0.5
190 1 0.467726 0.748077 0.5
196 1 0.37792 0.768943 0.5
255 1 0.431782 0.784657 0.5
198 1 0.395651 0.81945 0.5
253 1 0.445328 0.837023 0.5
254 1 0.481028 0.79896 0.5
252 1 0.405257 0.870735 0.5
204 1 0.416 0.920258 0.5
257 1 0.46563 0.885149 0.5
200 1 0.483514 0.991843 0.5
201 1 0.472399 0.940682 0.5
159 1 0.431462 0.970904 0.5
258 1 0.377729 0.952952 0.5
161 1 0.563953 0.104437 0.5
163 1 0.590729 0.0167535 0.5
109 1 0.548278 0.0563878 0.5
266 1 0.598636 0.0693588 0.5
261 1 0.513823 0.09278 0.5
162 1 0.536826 0.00581063 0.5
206 1 0.514053 0.140838 0.5
264 1 0.571435 0.158427 0.5
212 1 0.582463 0.209858 0.5
211 1 0.532193 0.189605 0.5
168 1 0.538527 0.237862 0.5
209 1 0.62216 0.178443 0.5
166 1 0.610748 0.125452 0.5
174 1 0.558382 0.300314 0.5
210 1 0.593231 0.26581 0.5
173 1 0.517961 0.330784 0.5
169 1 0.613361 0.315341 0.5
219 1 0.577174 0.349802 0.5
115 1 0.507309 0.281602 0.5
178 1 0.55547 0.481439 0.5
222 1 0.586197 0.403263 0.5
225 1 0.541315 0.432929 0.5
228 1 0.595359 0.452158 0.5
175 1 0.534516 0.379306 0.5
233 1 0.504098 0.466129 0.5
239 1 0.51811 0.520246 0.5
229 1 0.563382 0.538495 0.5
180 1 0.52935 0.573862 0.5
221 1 0.613405 0.554701 0.5
300 1 0.578027 0.592414 0.5
226 1 0.605035 0.504825 0.5
248 1 0.586308 0.641291 0.5
246 1 0.509945 0.717213 0.5
247 1 0.546666 0.678093 0.5
188 1 0.60306 0.697546 0.5
309 1 0.558972 0.731714 0.5
251 1 0.614933 0.749387 0.5
294 1 0.537488 0.624109 0.5
306 1 0.520158 0.768164 0.5
303 1 0.574634 0.780317 0.5
314 1 0.538706 0.814797 0.5
318 1 0.585907 0.837761 0.5
316 1 0.548686 0.871735 0.5
312 1 0.502251 0.850603 0.5
260 1 0.51273 0.907987 0.5
321 1 0.562962 0.918879 0.5
262 1 0.572468 0.968002 0.5
203 1 0.522177 0.9576 0.5
263 1 0.617308 0.939302 0.5
315 1 0.60414 0.885807 0.5
265 1 0.641591 0.0384205 0.5
324 1 0.730709 0.0164359 0.5
268 1 0.647557 0.0893455 0.5
269 1 0.69365 0.0536611 0.5
273 1 0.700792 0.104535 0.5
272 1 0.741213 0.0713061 0.5
327 1 0.747033 0.121889 0.5
323 1 0.684021 0.00196651 0.5
271 1 0.665027 0.139661 0.5
270 1 0.714974 0.1581 0.5
267 1 0.678653 0.195458 0.5
217 1 0.732818 0.210334 0.5
172 1 0.6386 0.229315 0.5
215 1 0.690097 0.243599 0.5
214 1 0.653303 0.283242 0.5
170 1 0.70298 0.295211 0.5
213 1 0.66553 0.331609 0.5
216 1 0.712265 0.345668 0.5
274 1 0.742587 0.26167 0.5
223 1 0.629269 0.367479 0.5
224 1 0.635523 0.418402 0.5
282 1 0.729791 0.397509 0.5
230 1 0.646478 0.470354 0.5
227 1 0.685852 0.433865 0.5
286 1 0.73852 0.452657 0.5
283 1 0.696663 0.483088 0.5
279 1 0.680072 0.38443 0.5
244 1 0.656731 0.518946 0.5
241 1 0.707141 0.535783 0.5
236 1 0.665246 0.569842 0.5
308 1 0.717866 0.583972 0.5
353 1 0.681028 0.61924 0.5
235 1 0.628723 0.605616 0.5
288 1 0.747677 0.503469 0.5
297 1 0.639019 0.657727 0.5
348 1 0.708923 0.725634 0.5
242 1 0.650552 0.711453 0.5
349 1 0.686404 0.672648 0.5
311 1 0.729682 0.636315 0.5
299 1 0.74416 0.685359 0.5
317 1 0.695136 0.8633 0.5
310 1 0.665499 0.764862 0.5
351 1 0.716558 0.776437 0.5
307 1 0.680511 0.813906 0.5
355 1 0.73134 0.825863 0.5
320 1 0.641109 0.848083 0.5
313 1 0.62367 0.79903 0.5
357 1 0.657902 0.898792 0.5
358 1 0.710269 0.911353 0.5
359 1 0.666027 0.950814 0.5
399 1 0.719855 0.964161 0.5
319 1 0.636204 0.988203 0.5
352 1 0.748404 0.877389 0.5
326 1 0.782199 0.0339744 0.5
361 1 0.831519 0.0480496 0.5
328 1 0.84624 0.100091 0.5
363 1 0.792412 0.0837812 0.5
364 1 0.87065 0.0101325 0.5
275 1 0.770383 0.168924 0.5
277 1 0.829577 0.240367 0.5
325 1 0.861328 0.149256 0.5
330 1 0.820358 0.187939 0.5
329 1 0.780153 0.220962 0.5
367 1 0.806697 0.13223 0.5
333 1 0.791903 0.274629 0.5
334 1 0.83921 0.29479 0.5
220 1 0.802162 0.330141 0.5
280 1 0.761919 0.361519 0.5
336 1 0.859295 0.356319 0.5
218 1 0.75676 0.312265 0.5
284 1 0.775105 0.416336 0.5
287 1 0.786357 0.467733 0.5
337 1 0.834335 0.428032 0.5
289 1 0.83608 0.48034 0.5
276 1 0.810869 0.378174 0.5
292 1 0.796384 0.515891 0.5
384 1 0.852065 0.529193 0.5
341 1 0.864954 0.575805 0.5
295 1 0.811543 0.561086 0.5
293 1 0.822718 0.611225 0.5
305 1 0.773825 0.605031 0.5
285 1 0.758386 0.553582 0.5
298 1 0.783622 0.651662 0.5
296 1 0.831629 0.670324 0.5
291 1 0.792442 0.703084 0.5
345 1 0.843568 0.720175 0.5
347 1 0.757233 0.738891 0.5
342 1 0.868014 0.630919 0.5
356 1 0.767389 0.790706 0.5
302 1 0.857556 0.767705 0.5
350 1 0.815839 0.805602 0.5
354 1 0.782717 0.841679 0.5
391 1 0.835925 0.853378 0.5
301 1 0.806693 0.755085 0.5
390 1 0.870441 0.81817 0.5
360 1 0.796349 0.895772 0.5
394 1 0.849831 0.904003 0.5
362 1 0.821475 0.998202 0.5
393 1 0.80765 0.945645 0.5
397 1 0.856677 0.954485 0.5
322 1 0.77199 0.981942 0.5
395 1 0.757253 0.928537 0.5
58 1 0.920687 0.0264485 0.5
1 1 0.882376 0.0585899 0.5
56 1 0.969403 0.0365226 0.5
7 1 0.982813 0.084657 0.5
368 1 0.932968 0.0766401 0.5
365 1 0.901236 0.116043 0.5
366 1 0.950472 0.125713 0.5
10 1 0.914502 0.171068 0.5
371 1 0.973846 0.240254 0.5
369 1 0.926042 0.222535 0.5
370 1 0.966191 0.18544 0.5
11 1 0.997311 0.144437 0.5
278 1 0.874378 0.201346 0.5
374 1 0.942213 0.319874 0.5
373 1 0.930329 0.272303 0.5
338 1 0.909586 0.362826 0.5
331 1 0.890963 0.315383 0.5
332 1 0.876856 0.256412 0.5
376 1 0.984851 0.290347 0.5
379 1 0.961051 0.371529 0.5
375 1 0.998263 0.338365 0.5
339 1 0.938127 0.462528 0.5
290 1 0.882932 0.458483 0.5
335 1 0.932009 0.412662 0.5
31 1 0.981307 0.438571 0.5
382 1 0.987344 0.492848 0.5
281 1 0.879063 0.404739 0.5
381 1 0.910945 0.559771 0.5
387 1 0.9616 0.584103 0.5
383 1 0.94835 0.522664 0.5
340 1 0.899571 0.504481 0.5
344 1 0.925978 0.619212 0.5
343 1 0.898021 0.735851 0.5
385 1 0.949954 0.738978 0.5
38 1 0.975719 0.633833 0.5
388 1 0.93513 0.676754 0.5
42 1 0.9813 0.692847 0.5
40 1 0.883854 0.679066 0.5
346 1 0.906935 0.786584 0.5
47 1 0.958057 0.797232 0.5
50 1 0.979128 0.845687 0.5
43 1 0.926381 0.837582 0.5
392 1 0.887161 0.868493 0.5
389 1 0.939242 0.885741 0.5
46 1 0.985665 0.896835 0.5
398 1 0.900246 0.919614 0.5
49 1 0.949096 0.934574 0.5
400 1 0.906432 0.974705 0.5
55 1 0.960775 0.984983 0.5
396 1 0.999595 0.956294 0.5
