ITEM: TIMESTEP
100000
ITEM: NUMBER OF ATOMS
400
ITEM: BOX BOUNDS pp pp pp
0.0000000000000000e+00 2.2360679774997898e+01
0.0000000000000000e+00 2.2360679774997898e+01
-5.5901699437494745e-01 5.5901699437494745e-01
ITEM: ATOMS id type xs ys zs
341 1 0.0347802 0.00837014 0.5
215 1 0.100882 0.0196365 0.5
226 1 0.0169705 0.0543056 0.5
267 1 0.0981045 0.0754495 0.5
105 1 0.0385433 0.0948873 0.5
251 1 0.0803675 0.123488 0.5
116 1 0.0306793 0.145092 0.5
52 1 0.0794514 0.180535 0.5
333 1 0.123575 0.163628 0.5
365 1 0.0331536 0.200231 0.5
156 1 0.0613669 0.238985 0.5
387 1 0.101836 0.218889 0.5
108 1 0.027894 0.267523 0.5
32 1 0.0171935 0.311245 0.5
225 1 0.0673459 0.293777 0.5
5 1 0.110785 0.289619 0.5
322 1 0.0658898 0.336335 0.5
207 1 0.109293 0.3373 0.5
364 1 0.0518503 0.384927 0.5
81 1 0.0966538 0.395333 0.5
133 1 0.00854823 0.408098 0.5
120 1 0.0458732 0.432013 0.5
195 1 0.119773 0.430875 0.5
370 1 0.00388077 0.453402 0.5
340 1 0.0886246 0.461778 0.5
124 1 0.0305631 0.514205 0.5
318 1 0.0745852 0.508729 0.5
317 1 0.0968753 0.55125 0.5
389 1 0.0339101 0.565766 0.5
10 1 0.0378423 0.611789 0.5
49 1 0.080872 0.593875 0.5
201 1 0.00539456 0.65025 0.5
285 1 0.0922206 0.635002 0.5
162 1 0.0497595 0.659839 0.5
279 1 0.104753 0.679931 0.5
79 1 0.0430565 0.709347 0.5
37 1 0.0853293 0.730088 0.5
127 1 0.0496386 0.758959 0.5
144 1 0.124268 0.750026 0.5
62 1 0.0250324 0.799418 0.5
271 1 0.106052 0.795548 0.5
300 1 0.0673732 0.813389 0.5
348 1 0.0865421 0.857347 0.5
260 1 0.000205306 0.900329 0.5
192 1 0.0452317 0.876895 0.5
218 1 0.117592 0.88665 0.5
321 1 0.0376337 0.92445 0.5
286 1 0.082619 0.915208 0.5
228 1 0.00219659 0.961514 0.5
189 1 0.0559915 0.964887 0.5
238 1 0.10689 0.972881 0.5
102 1 0.143301 0.0254814 0.5
337 1 0.191148 0.00795428 0.5
57 1 0.234834 0.0228059 0.5
399 1 0.148245 0.0716207 0.5
334 1 0.198048 0.0850383 0.5
104 1 0.244028 0.0830363 0.5
246 1 0.136752 0.116812 0.5
290 1 0.192727 0.171331 0.5
243 1 0.237575 0.170666 0.5
269 1 0.146646 0.20276 0.5
319 1 0.208694 0.220091 0.5
3 1 0.132586 0.25129 0.5
360 1 0.180379 0.252162 0.5
263 1 0.154576 0.288203 0.5
183 1 0.20027 0.302547 0.5
17 1 0.179404 0.337604 0.5
305 1 0.239907 0.321096 0.5
304 1 0.222402 0.367048 0.5
45 1 0.140898 0.382235 0.5
122 1 0.208843 0.408456 0.5
139 1 0.162305 0.437511 0.5
234 1 0.202131 0.458972 0.5
50 1 0.246146 0.467576 0.5
134 1 0.131865 0.511715 0.5
314 1 0.178726 0.507715 0.5
344 1 0.227619 0.520279 0.5
123 1 0.147101 0.553309 0.5
338 1 0.192819 0.557512 0.5
140 1 0.244041 0.572477 0.5
78 1 0.126162 0.600252 0.5
51 1 0.172805 0.609887 0.5
232 1 0.215696 0.606175 0.5
250 1 0.139583 0.644272 0.5
221 1 0.218383 0.65126 0.5
257 1 0.182087 0.676819 0.5
58 1 0.138636 0.709861 0.5
153 1 0.2174 0.711836 0.5
217 1 0.177315 0.732895 0.5
273 1 0.226088 0.75924 0.5
233 1 0.189673 0.790103 0.5
181 1 0.230088 0.806279 0.5
130 1 0.150082 0.839572 0.5
131 1 0.200066 0.851678 0.5
175 1 0.243766 0.862449 0.5
373 1 0.173513 0.893924 0.5
278 1 0.230447 0.903397 0.5
281 1 0.14733 0.93232 0.5
259 1 0.201943 0.946391 0.5
343 1 0.165393 0.972194 0.5
224 1 0.237647 0.969547 0.5
354 1 0.276272 0.0177449 0.5
67 1 0.327059 0.0118022 0.5
72 1 0.296168 0.0561247 0.5
372 1 0.292877 0.116715 0.5
323 1 0.33753 0.095632 0.5
157 1 0.253753 0.130932 0.5
88 1 0.332844 0.144517 0.5
231 1 0.280271 0.177368 0.5
277 1 0.368224 0.186715 0.5
166 1 0.251051 0.214195 0.5
6 1 0.331726 0.210986 0.5
396 1 0.292071 0.233026 0.5
235 1 0.373804 0.231002 0.5
128 1 0.252648 0.267219 0.5
288 1 0.332173 0.271538 0.5
48 1 0.290868 0.292696 0.5
315 1 0.266138 0.354606 0.5
268 1 0.316209 0.356716 0.5
199 1 0.373166 0.372379 0.5
103 1 0.25276 0.418323 0.5
252 1 0.297582 0.422336 0.5
38 1 0.343668 0.420734 0.5
15 1 0.284045 0.489108 0.5
172 1 0.327634 0.470646 0.5
143 1 0.372141 0.4692 0.5
392 1 0.34277 0.526262 0.5
91 1 0.283466 0.534482 0.5
293 1 0.296591 0.574745 0.5
190 1 0.352993 0.568878 0.5
179 1 0.270124 0.619757 0.5
40 1 0.331753 0.608466 0.5
4 1 0.3079 0.646846 0.5
393 1 0.363408 0.640384 0.5
309 1 0.263528 0.673582 0.5
119 1 0.263296 0.717544 0.5
141 1 0.314577 0.706229 0.5
352 1 0.362115 0.694332 0.5
388 1 0.33394 0.749028 0.5
350 1 0.280732 0.755366 0.5
80 1 0.306982 0.790318 0.5
236 1 0.359763 0.795914 0.5
152 1 0.272168 0.823484 0.5
330 1 0.316862 0.833843 0.5
43 1 0.29174 0.870665 0.5
336 1 0.334811 0.873826 0.5
346 1 0.36783 0.905939 0.5
379 1 0.267895 0.93166 0.5
97 1 0.327518 0.926769 0.5
313 1 0.291019 0.975585 0.5
212 1 0.334929 0.969278 0.5
297 1 0.383947 0.022568 0.5
239 1 0.423103 0.00447034 0.5
357 1 0.467495 0.0153827 0.5
214 1 0.46105 0.0609967 0.5
205 1 0.382045 0.0664699 0.5
113 1 0.422719 0.113036 0.5
303 1 0.472089 0.103249 0.5
8 1 0.380141 0.132205 0.5
204 1 0.419442 0.154034 0.5
320 1 0.465424 0.147622 0.5
208 1 0.410115 0.210336 0.5
219 1 0.447173 0.187547 0.5
25 1 0.491983 0.200441 0.5
150 1 0.440727 0.249739 0.5
206 1 0.398738 0.279512 0.5
272 1 0.479092 0.277259 0.5
349 1 0.441567 0.300309 0.5
73 1 0.381405 0.322545 0.5
184 1 0.468582 0.337947 0.5
56 1 0.42222 0.356356 0.5
390 1 0.425653 0.401476 0.5
145 1 0.472769 0.396077 0.5
299 1 0.395152 0.43053 0.5
111 1 0.468164 0.442789 0.5
375 1 0.425105 0.469402 0.5
395 1 0.478503 0.488892 0.5
23 1 0.394386 0.51275 0.5
173 1 0.398867 0.557156 0.5
90 1 0.449297 0.535434 0.5
311 1 0.493149 0.543967 0.5
27 1 0.461012 0.576588 0.5
53 1 0.381898 0.59939 0.5
254 1 0.463425 0.617667 0.5
82 1 0.415609 0.632017 0.5
312 1 0.400838 0.679024 0.5
168 1 0.476837 0.669001 0.5
100 1 0.405474 0.727369 0.5
310 1 0.463508 0.723271 0.5
361 1 0.442719 0.767826 0.5
46 1 0.485123 0.780178 0.5
163 1 0.400456 0.81375 0.5
86 1 0.459001 0.823738 0.5
187 1 0.378215 0.861102 0.5
42 1 0.441924 0.866634 0.5
291 1 0.421199 0.905394 0.5
54 1 0.46283 0.932906 0.5
129 1 0.427418 0.961839 0.5
308 1 0.387586 0.975579 0.5
329 1 0.479365 0.971455 0.5
307 1 0.56062 0.0247204 0.5
165 1 0.581587 0.0622713 0.5
28 1 0.538002 0.0715659 0.5
398 1 0.620855 0.0891349 0.5
121 1 0.568031 0.104104 0.5
339 1 0.514852 0.125878 0.5
240 1 0.551811 0.155552 0.5
74 1 0.598902 0.144166 0.5
200 1 0.536443 0.19406 0.5
96 1 0.594619 0.193529 0.5
89 1 0.524048 0.275762 0.5
327 1 0.579715 0.259985 0.5
95 1 0.611505 0.298482 0.5
342 1 0.544551 0.31656 0.5
83 1 0.515553 0.358684 0.5
394 1 0.571402 0.357412 0.5
302 1 0.617333 0.366709 0.5
151 1 0.522974 0.403498 0.5
386 1 0.596166 0.405199 0.5
391 1 0.516969 0.456362 0.5
125 1 0.558726 0.438905 0.5
115 1 0.601123 0.449535 0.5
400 1 0.567155 0.485686 0.5
154 1 0.519166 0.507564 0.5
132 1 0.54388 0.554174 0.5
382 1 0.603825 0.54339 0.5
282 1 0.513237 0.590354 0.5
244 1 0.594951 0.589317 0.5
87 1 0.503543 0.633355 0.5
148 1 0.568141 0.632766 0.5
331 1 0.605169 0.650492 0.5
362 1 0.52572 0.671448 0.5
366 1 0.573412 0.683627 0.5
220 1 0.546003 0.715972 0.5
47 1 0.507968 0.73755 0.5
16 1 0.587085 0.731615 0.5
55 1 0.62438 0.751496 0.5
68 1 0.51946 0.809937 0.5
355 1 0.556731 0.78158 0.5
60 1 0.601483 0.798634 0.5
114 1 0.575554 0.838804 0.5
31 1 0.505562 0.857915 0.5
170 1 0.501485 0.904239 0.5
117 1 0.544773 0.895585 0.5
230 1 0.59115 0.881867 0.5
284 1 0.573383 0.935885 0.5
160 1 0.524563 0.952195 0.5
94 1 0.519851 0.99656 0.5
126 1 0.56154 0.977677 0.5
185 1 0.60028 0.999436 0.5
36 1 0.689461 0.0307743 0.5
261 1 0.646523 0.0532745 0.5
326 1 0.731594 0.0381387 0.5
136 1 0.701075 0.075954 0.5
177 1 0.650719 0.130391 0.5
351 1 0.729208 0.1508 0.5
249 1 0.64385 0.183341 0.5
146 1 0.691141 0.178016 0.5
176 1 0.72525 0.209308 0.5
147 1 0.631452 0.231964 0.5
332 1 0.682095 0.220337 0.5
253 1 0.659445 0.280634 0.5
63 1 0.70526 0.257474 0.5
169 1 0.693421 0.312457 0.5
101 1 0.737705 0.291558 0.5
76 1 0.657419 0.353603 0.5
161 1 0.715981 0.350186 0.5
1 1 0.692685 0.389955 0.5
137 1 0.637586 0.41241 0.5
363 1 0.683689 0.43402 0.5
171 1 0.737827 0.423015 0.5
256 1 0.722371 0.460939 0.5
229 1 0.633452 0.492676 0.5
316 1 0.683687 0.486552 0.5
20 1 0.73534 0.512802 0.5
371 1 0.65035 0.557528 0.5
325 1 0.693914 0.538191 0.5
18 1 0.6771 0.590946 0.5
245 1 0.722603 0.584178 0.5
266 1 0.639707 0.617163 0.5
182 1 0.675977 0.642005 0.5
33 1 0.743437 0.653275 0.5
174 1 0.632069 0.68368 0.5
178 1 0.706813 0.676748 0.5
377 1 0.709455 0.728877 0.5
264 1 0.676669 0.766381 0.5
347 1 0.723241 0.771637 0.5
328 1 0.689888 0.808237 0.5
222 1 0.727995 0.835567 0.5
193 1 0.632949 0.844682 0.5
209 1 0.699536 0.873213 0.5
258 1 0.643133 0.888262 0.5
92 1 0.700004 0.927684 0.5
255 1 0.747829 0.914667 0.5
107 1 0.642449 0.938469 0.5
159 1 0.745228 0.958521 0.5
353 1 0.653631 0.998344 0.5
7 1 0.698061 0.974435 0.5
210 1 0.773569 0.0086514 0.5
13 1 0.813687 0.0231741 0.5
294 1 0.858419 0.0225951 0.5
99 1 0.771067 0.0619545 0.5
70 1 0.82095 0.0637069 0.5
158 1 0.870702 0.0862835 0.5
301 1 0.760839 0.11016 0.5
35 1 0.808194 0.117305 0.5
29 1 0.780711 0.155656 0.5
385 1 0.870251 0.13697 0.5
12 1 0.829196 0.182884 0.5
75 1 0.790442 0.210629 0.5
381 1 0.870266 0.205662 0.5
197 1 0.75982 0.245115 0.5
216 1 0.830538 0.238349 0.5
21 1 0.801116 0.276378 0.5
380 1 0.874879 0.2505 0.5
368 1 0.852595 0.287991 0.5
237 1 0.768563 0.333133 0.5
106 1 0.81832 0.31664 0.5
188 1 0.867601 0.336662 0.5
295 1 0.814578 0.358538 0.5
2 1 0.765168 0.388887 0.5
142 1 0.78422 0.428858 0.5
39 1 0.82521 0.418951 0.5
41 1 0.868703 0.414906 0.5
164 1 0.845412 0.465888 0.5
61 1 0.794875 0.474312 0.5
275 1 0.7877 0.523109 0.5
109 1 0.827472 0.511755 0.5
289 1 0.76216 0.561626 0.5
274 1 0.815064 0.558041 0.5
248 1 0.848109 0.591774 0.5
384 1 0.764294 0.612769 0.5
196 1 0.818864 0.645799 0.5
26 1 0.871308 0.643371 0.5
118 1 0.844445 0.684212 0.5
85 1 0.758051 0.703161 0.5
34 1 0.802631 0.696601 0.5
296 1 0.783472 0.737919 0.5
276 1 0.83612 0.751564 0.5
283 1 0.778616 0.783536 0.5
180 1 0.823901 0.790633 0.5
69 1 0.835853 0.833524 0.5
280 1 0.771569 0.846705 0.5
11 1 0.796538 0.88744 0.5
98 1 0.844667 0.875514 0.5
24 1 0.831894 0.932242 0.5
374 1 0.786478 0.938079 0.5
270 1 0.864613 0.967223 0.5
194 1 0.810805 0.979402 0.5
265 1 0.942832 0.027202 0.5
369 1 0.989794 0.01294 0.5
242 1 0.896042 0.0437465 0.5
345 1 0.972641 0.0601321 0.5
356 1 0.919409 0.0815555 0.5
335 1 0.956165 0.109923 0.5
202 1 0.910661 0.12952 0.5
66 1 0.985151 0.148656 0.5
262 1 0.907755 0.176021 0.5
138 1 0.93515 0.214238 0.5
135 1 0.980562 0.195242 0.5
324 1 0.977214 0.245016 0.5
44 1 0.921584 0.265551 0.5
367 1 0.897875 0.304028 0.5
287 1 0.96683 0.288621 0.5
9 1 0.892751 0.371369 0.5
14 1 0.935973 0.35902 0.5
65 1 0.995185 0.349269 0.5
77 1 0.916925 0.418524 0.5
397 1 0.961222 0.409987 0.5
110 1 0.912293 0.465738 0.5
155 1 0.959507 0.454329 0.5
112 1 0.98473 0.494155 0.5
213 1 0.887123 0.512299 0.5
19 1 0.937762 0.504472 0.5
203 1 0.880381 0.555873 0.5
383 1 0.922777 0.544223 0.5
359 1 0.988953 0.561243 0.5
227 1 0.945269 0.59302 0.5
93 1 0.995422 0.605995 0.5
71 1 0.919261 0.633309 0.5
186 1 0.961467 0.637006 0.5
84 1 0.909814 0.681173 0.5
191 1 0.956382 0.698351 0.5
376 1 0.999924 0.709892 0.5
306 1 0.878817 0.735856 0.5
358 1 0.921137 0.727068 0.5
64 1 0.895411 0.775076 0.5
298 1 0.93667 0.773916 0.5
149 1 0.999489 0.765725 0.5
59 1 0.971018 0.803239 0.5
167 1 0.877989 0.812925 0.5
198 1 0.935374 0.843323 0.5
241 1 0.890487 0.863275 0.5
30 1 0.915097 0.901418 0.5
247 1 0.958599 0.884485 0.5
223 1 0.879401 0.925314 0.5
292 1 0.960243 0.92899 0.5
22 1 0.917843 0.949115 0.5
378 1 0.902737 0.990657 0.5
211 1 0.957087 0.97716 0.5
