ITEM: TIMESTEP
100000
ITEM: NUMBER OF ATOMS
400
ITEM: BOX BOUNDS pp pp pp
0.0000000000000000e+00 2.0000000000000000e+01
0.0000000000000000e+00 2.0000000000000000e+01
-5.0000000000000000e-01 5.0000000000000000e-01
ITEM: ATOMS id type xs ys zs
191 1 0.0484516 0.0441683 0.5
395 1 0.0910553 0.0235214 0.5
220 1 0.0388583 0.0906983 0.5
40 1 0.0854792 0.0744368 0.5
3 1 0.122688 0.106958 0.5
389 1 0.116732 0.154297 0.5
126 1 0.0340778 0.153015 0.5
104 1 0.0159989 0.20431 0.5
293 1 0.0754328 0.185456 0.5
340 1 0.0563667 0.23706 0.5
135 1 0.0755288 0.123917 0.5
379 1 0.0519036 0.332653 0.5
119 1 0.100843 0.286005 0.5
154 1 0.048882 0.284946 0.5
52 1 0.0198234 0.371012 0.5
391 1 0.0039799 0.269235 0.5
172 1 0.0790943 0.369472 0.5
66 1 0.00461077 0.316819 0.5
384 1 0.10867 0.415155 0.5
38 1 0.0278989 0.462309 0.5
171 1 0.0789885 0.458835 0.5
91 1 0.0560148 0.410126 0.5
138 1 0.00452044 0.419397 0.5
326 1 0.0519953 0.510677 0.5
144 1 0.00211144 0.60435 0.5
175 1 0.0312893 0.560125 0.5
36 1 0.0786495 0.553712 0.5
347 1 0.110258 0.593323 0.5
236 1 0.0532188 0.602084 0.5
90 1 0.101772 0.503869 0.5
164 1 0.0880166 0.65111 0.5
309 1 0.0616182 0.700915 0.5
76 1 0.0394579 0.655064 0.5
350 1 0.0906476 0.741568 0.5
237 1 0.112445 0.695801 0.5
275 1 0.0367389 0.74515 0.5
1 1 0.0128545 0.693164 0.5
166 1 0.0565896 0.832439 0.5
235 1 0.11152 0.839571 0.5
165 1 0.0270808 0.79092 0.5
2 1 0.0853661 0.790804 0.5
336 1 0.0787167 0.875704 0.5
146 1 0.114626 0.982155 0.5
56 1 0.0450858 0.99221 0.5
342 1 0.0868838 0.942983 0.5
259 1 0.035273 0.938515 0.5
219 1 0.0304525 0.890342 0.5
194 1 0.116775 0.89964 0.5
345 1 0.194426 0.0403186 0.5
213 1 0.227286 0.00127568 0.5
188 1 0.140733 0.0422386 0.5
400 1 0.167816 0.082338 0.5
369 1 0.222576 0.0802266 0.5
195 1 0.163034 0.142334 0.5
231 1 0.185847 0.230252 0.5
227 1 0.147399 0.190789 0.5
58 1 0.197753 0.18424 0.5
364 1 0.239044 0.224741 0.5
362 1 0.210987 0.13516 0.5
53 1 0.245964 0.177254 0.5
348 1 0.12533 0.233703 0.5
209 1 0.157036 0.270765 0.5
112 1 0.218752 0.2693 0.5
290 1 0.176915 0.358385 0.5
87 1 0.19096 0.309349 0.5
249 1 0.230593 0.355013 0.5
78 1 0.142196 0.315675 0.5
328 1 0.127603 0.363964 0.5
116 1 0.182017 0.4577 0.5
256 1 0.232505 0.443035 0.5
50 1 0.157786 0.410682 0.5
214 1 0.204811 0.404187 0.5
106 1 0.1332 0.457372 0.5
341 1 0.214925 0.493981 0.5
372 1 0.241017 0.532011 0.5
70 1 0.219423 0.580845 0.5
320 1 0.1899 0.539595 0.5
127 1 0.12862 0.543496 0.5
315 1 0.168961 0.587501 0.5
6 1 0.24519 0.621528 0.5
211 1 0.156343 0.501409 0.5
187 1 0.227954 0.719428 0.5
338 1 0.137432 0.742491 0.5
132 1 0.166999 0.666367 0.5
75 1 0.222286 0.667318 0.5
267 1 0.178226 0.713782 0.5
86 1 0.133893 0.633572 0.5
257 1 0.196339 0.627675 0.5
63 1 0.160276 0.854592 0.5
212 1 0.184136 0.810107 0.5
382 1 0.181665 0.763137 0.5
134 1 0.23165 0.772879 0.5
276 1 0.212613 0.855096 0.5
321 1 0.139312 0.796046 0.5
186 1 0.198768 0.948214 0.5
366 1 0.233595 0.909398 0.5
28 1 0.146689 0.942783 0.5
247 1 0.183527 0.897305 0.5
339 1 0.247063 0.960786 0.5
147 1 0.167601 0.989798 0.5
317 1 0.370461 0.0281264 0.5
100 1 0.256132 0.0409939 0.5
34 1 0.323587 0.0339917 0.5
174 1 0.346588 0.0783838 0.5
140 1 0.258977 0.116695 0.5
228 1 0.290508 0.0788922 0.5
199 1 0.321688 0.119879 0.5
98 1 0.340245 0.215047 0.5
148 1 0.357533 0.167493 0.5
334 1 0.292583 0.211082 0.5
381 1 0.298625 0.161402 0.5
11 1 0.280504 0.354098 0.5
163 1 0.270071 0.263134 0.5
376 1 0.356612 0.306007 0.5
324 1 0.30363 0.310744 0.5
208 1 0.334817 0.351657 0.5
224 1 0.327143 0.263844 0.5
398 1 0.251526 0.311854 0.5
18 1 0.285684 0.44144 0.5
159 1 0.358587 0.393422 0.5
387 1 0.334276 0.440195 0.5
99 1 0.303457 0.397569 0.5
370 1 0.315123 0.4829 0.5
245 1 0.25354 0.400409 0.5
123 1 0.364728 0.477522 0.5
48 1 0.265818 0.486829 0.5
9 1 0.321548 0.573906 0.5
33 1 0.267875 0.574478 0.5
160 1 0.290767 0.530071 0.5
292 1 0.341618 0.524701 0.5
262 1 0.294575 0.617007 0.5
261 1 0.371797 0.566891 0.5
200 1 0.34892 0.6225 0.5
59 1 0.328647 0.671443 0.5
265 1 0.355012 0.738227 0.5
125 1 0.277654 0.677373 0.5
136 1 0.313226 0.719609 0.5
312 1 0.278571 0.759807 0.5
367 1 0.335786 0.783432 0.5
289 1 0.352107 0.83047 0.5
354 1 0.304434 0.81867 0.5
133 1 0.260977 0.862141 0.5
89 1 0.252381 0.81391 0.5
368 1 0.28313 0.906252 0.5
383 1 0.360276 0.928669 0.5
26 1 0.311782 0.94378 0.5
299 1 0.348777 0.979388 0.5
71 1 0.294217 0.991427 0.5
7 1 0.329021 0.882167 0.5
19 1 0.468614 0.0137576 0.5
288 1 0.413397 0.0118651 0.5
110 1 0.394851 0.0738659 0.5
361 1 0.448537 0.0571699 0.5
85 1 0.428046 0.116071 0.5
10 1 0.377241 0.11853 0.5
371 1 0.477877 0.105685 0.5
107 1 0.497234 0.0566822 0.5
139 1 0.442029 0.199625 0.5
81 1 0.466045 0.155569 0.5
264 1 0.413356 0.16345 0.5
29 1 0.392241 0.20919 0.5
44 1 0.481918 0.248239 0.5
46 1 0.436122 0.336707 0.5
308 1 0.486719 0.338347 0.5
47 1 0.455254 0.292655 0.5
390 1 0.407231 0.300848 0.5
180 1 0.389764 0.353922 0.5
357 1 0.428222 0.249865 0.5
344 1 0.377629 0.262229 0.5
269 1 0.429394 0.47141 0.5
21 1 0.384004 0.433983 0.5
241 1 0.461907 0.435619 0.5
258 1 0.484357 0.487747 0.5
283 1 0.428264 0.399971 0.5
84 1 0.472653 0.384856 0.5
114 1 0.443294 0.516345 0.5
294 1 0.427131 0.561659 0.5
285 1 0.480473 0.547312 0.5
57 1 0.396004 0.524463 0.5
393 1 0.44787 0.604067 0.5
69 1 0.397471 0.606289 0.5
43 1 0.498501 0.616888 0.5
225 1 0.41779 0.648489 0.5
331 1 0.468688 0.655386 0.5
301 1 0.435635 0.696524 0.5
207 1 0.467223 0.735994 0.5
158 1 0.379275 0.686207 0.5
92 1 0.406267 0.735401 0.5
356 1 0.405087 0.826458 0.5
15 1 0.43711 0.773513 0.5
108 1 0.42589 0.868604 0.5
346 1 0.4586 0.825659 0.5
179 1 0.482582 0.783769 0.5
300 1 0.375373 0.876124 0.5
287 1 0.480655 0.867221 0.5
82 1 0.387324 0.782604 0.5
167 1 0.451235 0.963337 0.5
316 1 0.411617 0.915644 0.5
359 1 0.397867 0.965077 0.5
177 1 0.467714 0.914363 0.5
397 1 0.591389 0.0997986 0.5
196 1 0.540099 0.109353 0.5
310 1 0.574153 0.00787536 0.5
216 1 0.55259 0.0573871 0.5
394 1 0.606778 0.0512384 0.5
42 1 0.525976 0.0127493 0.5
282 1 0.514645 0.152954 0.5
349 1 0.530866 0.242683 0.5
244 1 0.579297 0.238312 0.5
153 1 0.55387 0.195308 0.5
121 1 0.601214 0.18847 0.5
162 1 0.570827 0.149196 0.5
396 1 0.620989 0.137835 0.5
54 1 0.503658 0.202678 0.5
111 1 0.611232 0.278117 0.5
45 1 0.558504 0.285143 0.5
170 1 0.541575 0.330944 0.5
4 1 0.588981 0.322626 0.5
143 1 0.506223 0.293614 0.5
124 1 0.608054 0.370629 0.5
278 1 0.524063 0.376469 0.5
238 1 0.576609 0.453923 0.5
185 1 0.619807 0.483181 0.5
113 1 0.615609 0.424338 0.5
343 1 0.531121 0.467699 0.5
25 1 0.508763 0.423049 0.5
41 1 0.566066 0.402054 0.5
353 1 0.52771 0.525615 0.5
14 1 0.610388 0.58034 0.5
55 1 0.525863 0.573792 0.5
184 1 0.57155 0.550364 0.5
105 1 0.564726 0.605242 0.5
102 1 0.626033 0.534267 0.5
149 1 0.570182 0.50355 0.5
205 1 0.536753 0.648092 0.5
255 1 0.598584 0.716427 0.5
156 1 0.54939 0.722509 0.5
93 1 0.505458 0.695942 0.5
137 1 0.583934 0.668913 0.5
35 1 0.613854 0.631801 0.5
192 1 0.531125 0.772803 0.5
20 1 0.609483 0.829289 0.5
145 1 0.58369 0.768717 0.5
279 1 0.555813 0.82009 0.5
323 1 0.533438 0.865374 0.5
251 1 0.59046 0.871809 0.5
201 1 0.50843 0.825011 0.5
215 1 0.520256 0.914802 0.5
253 1 0.577913 0.923348 0.5
152 1 0.607167 0.961776 0.5
226 1 0.548432 0.964106 0.5
377 1 0.498599 0.965879 0.5
190 1 0.674345 0.0299757 0.5
266 1 0.726615 0.0222455 0.5
12 1 0.641586 0.0924577 0.5
246 1 0.691473 0.0811462 0.5
392 1 0.741912 0.0702447 0.5
355 1 0.732662 0.122979 0.5
49 1 0.676273 0.226839 0.5
337 1 0.702417 0.183626 0.5
182 1 0.655398 0.176185 0.5
96 1 0.731501 0.222834 0.5
155 1 0.627854 0.230175 0.5
322 1 0.681015 0.133773 0.5
302 1 0.710164 0.266411 0.5
131 1 0.712321 0.364006 0.5
375 1 0.637743 0.317802 0.5
128 1 0.685955 0.320703 0.5
204 1 0.737987 0.313102 0.5
333 1 0.6614 0.271833 0.5
273 1 0.65786 0.372085 0.5
378 1 0.658849 0.448677 0.5
229 1 0.690336 0.410878 0.5
360 1 0.705118 0.457788 0.5
130 1 0.739651 0.419358 0.5
274 1 0.665746 0.499353 0.5
307 1 0.714829 0.610039 0.5
281 1 0.71709 0.563223 0.5
271 1 0.66539 0.592659 0.5
303 1 0.712839 0.513946 0.5
223 1 0.670998 0.545531 0.5
13 1 0.671375 0.646053 0.5
240 1 0.681679 0.699926 0.5
22 1 0.653814 0.741579 0.5
313 1 0.633955 0.676176 0.5
230 1 0.736595 0.710778 0.5
252 1 0.717142 0.660487 0.5
88 1 0.636507 0.78826 0.5
197 1 0.651318 0.85225 0.5
291 1 0.687775 0.798597 0.5
101 1 0.710991 0.846323 0.5
325 1 0.737066 0.794248 0.5
221 1 0.704522 0.750313 0.5
118 1 0.663987 0.948139 0.5
72 1 0.710986 0.937234 0.5
176 1 0.628581 0.914841 0.5
97 1 0.640918 0.992669 0.5
169 1 0.694423 0.988481 0.5
306 1 0.686489 0.892723 0.5
248 1 0.735899 0.88686 0.5
365 1 0.743089 0.973122 0.5
120 1 0.828892 0.105217 0.5
60 1 0.80435 0.0598304 0.5
73 1 0.78265 0.106079 0.5
183 1 0.836827 0.0194931 0.5
62 1 0.776843 0.0149295 0.5
284 1 0.856641 0.061787 0.5
206 1 0.857338 0.147324 0.5
298 1 0.8299 0.200017 0.5
305 1 0.808641 0.156398 0.5
8 1 0.782296 0.215365 0.5
80 1 0.75915 0.16592 0.5
64 1 0.865363 0.241636 0.5
95 1 0.828887 0.34341 0.5
51 1 0.785159 0.324968 0.5
202 1 0.847379 0.289818 0.5
242 1 0.758761 0.267476 0.5
37 1 0.813276 0.254492 0.5
23 1 0.867722 0.388605 0.5
24 1 0.8181 0.474707 0.5
157 1 0.838508 0.42916 0.5
178 1 0.792195 0.436306 0.5
83 1 0.810557 0.389915 0.5
68 1 0.86564 0.467789 0.5
329 1 0.753587 0.468357 0.5
388 1 0.760062 0.375717 0.5
270 1 0.771716 0.564127 0.5
260 1 0.820526 0.583818 0.5
30 1 0.854079 0.616732 0.5
173 1 0.872105 0.571808 0.5
103 1 0.820304 0.53007 0.5
117 1 0.773264 0.513334 0.5
233 1 0.772142 0.614163 0.5
263 1 0.766828 0.666285 0.5
181 1 0.787971 0.711128 0.5
74 1 0.847491 0.71458 0.5
335 1 0.818215 0.659649 0.5
151 1 0.867594 0.66852 0.5
318 1 0.759501 0.839335 0.5
319 1 0.870342 0.797544 0.5
239 1 0.825167 0.830037 0.5
232 1 0.789265 0.798628 0.5
142 1 0.825077 0.760987 0.5
32 1 0.795905 0.871212 0.5
129 1 0.852249 0.874487 0.5
61 1 0.762797 0.753351 0.5
332 1 0.82621 0.918898 0.5
115 1 0.84821 0.961487 0.5
311 1 0.799866 0.963253 0.5
65 1 0.775845 0.914348 0.5
31 1 0.906893 0.046307 0.5
295 1 0.995572 0.114241 0.5
210 1 0.95019 0.0832833 0.5
193 1 0.994858 0.0564877 0.5
385 1 0.897913 0.10356 0.5
79 1 0.990299 0.00840588 0.5
198 1 0.881208 0.000659929 0.5
77 1 0.938739 0.00496197 0.5
218 1 0.972798 0.230748 0.5
374 1 0.985895 0.162127 0.5
373 1 0.941633 0.190885 0.5
280 1 0.902289 0.152511 0.5
203 1 0.945006 0.130646 0.5
327 1 0.920461 0.246492 0.5
94 1 0.896282 0.201415 0.5
122 1 0.898483 0.286751 0.5
250 1 0.957988 0.283269 0.5
363 1 0.88456 0.34014 0.5
399 1 0.937489 0.329058 0.5
297 1 0.974351 0.360709 0.5
386 1 0.919492 0.374561 0.5
286 1 0.929862 0.467484 0.5
254 1 0.950077 0.423768 0.5
161 1 0.898884 0.426562 0.5
277 1 0.979235 0.464875 0.5
330 1 0.94394 0.513138 0.5
351 1 0.901829 0.612183 0.5
27 1 0.921314 0.56636 0.5
150 1 0.97332 0.55857 0.5
296 1 0.949983 0.607514 0.5
358 1 0.884619 0.516066 0.5
217 1 0.998906 0.516064 0.5
5 1 0.978343 0.655482 0.5
39 1 0.922992 0.657749 0.5
234 1 0.900744 0.708363 0.5
222 1 0.952528 0.700662 0.5
272 1 0.984812 0.739086 0.5
16 1 0.947415 0.852664 0.5
380 1 0.915481 0.803461 0.5
141 1 0.895233 0.851204 0.5
268 1 0.96712 0.793308 0.5
109 1 0.995339 0.848248 0.5
17 1 0.928063 0.751043 0.5
243 1 0.880167 0.751816 0.5
189 1 0.980817 0.907659 0.5
67 1 0.900012 0.956667 0.5
304 1 0.94665 0.941388 0.5
168 1 0.991606 0.961382 0.5
352 1 0.928849 0.8962 0.5
314 1 0.884011 0.908288 0.5
