ITEM: TIMESTEP
100000
ITEM: NUMBER OF ATOMS
2048
ITEM: BOX BOUNDS pp pp pp
0.0000000000000000e+00 1.3153131063095840e+01
0.0000000000000000e+00 1.3153131063095840e+01
0.0000000000000000e+00 1.3153131063095840e+01
ITEM: ATOMS id type xs ys zs
1006 1 0.166643 0.137677 0.012675
472 1 0.239652 0.180499 0.21045
415 1 0.0351416 0.126923 0.0361537
179 1 0.170598 0.237273 0.224877
1461 1 0.0801759 0.145859 0.219766
1404 1 0.0967846 0.00925228 0.17076
853 1 0.231089 0.127639 0.101247
1399 1 0.232056 0.0936258 0.175471
548 1 0.0577532 0.183548 0.0841123
291 1 0.153331 0.0599935 0.176403
1796 1 0.169645 0.246447 0.134947
1615 1 0.024979 0.10777 0.188425
322 1 0.0964362 0.101689 0.159058
1503 1 0.014271 0.0381621 0.124253
1781 1 0.181513 0.133811 0.216404
939 1 0.165789 0.193589 0.0714476
162 1 0.222857 0.192775 0.134577
697 1 0.0857663 0.0710321 0.240456
422 1 0.0973974 0.190763 0.147078
479 1 0.131733 0.0507546 0.0303842
1884 1 0.227026 0.0629062 0.00525931
1065 1 0.162105 0.143786 0.138767
1727 1 0.0289225 0.0192067 0.192492
1600 1 0.111662 0.130591 0.0745814
407 1 0.0867432 0.0463841 0.096755
171 1 0.0837337 0.24402 0.194987
507 1 0.170563 0.0880054 0.0877982
977 1 0.214384 0.00588862 0.10959
1435 1 0.0514537 0.0349358 0.0366016
1599 1 0.239058 0.0603648 0.242972
271 1 0.229604 0.221039 0.0235737
1603 1 0.113243 0.188932 0.0240641
383 1 0.042331 0.107918 0.114307
605 1 0.0444786 0.24306 0.0395715
458 1 0.248768 0.133096 0.0246174
508 1 0.0929635 0.237737 0.438516
1809 1 0.233544 0.143235 0.343953
598 1 0.00850682 0.137171 0.354642
1340 1 0.225177 0.236999 0.353435
356 1 0.0597184 0.164065 0.452458
2026 1 0.237117 0.198718 0.416438
103 1 0.172072 0.187832 0.461861
1519 1 0.126625 0.135587 0.414723
131 1 0.0937772 0.222407 0.282204
298 1 0.167842 0.182064 0.368303
825 1 0.192891 0.183591 0.293068
348 1 0.0173329 0.0333455 0.272838
1984 1 0.0458561 0.0901655 0.398624
828 1 0.114644 0.149295 0.307829
1577 1 0.210795 0.126116 0.419887
493 1 0.0444882 0.0522004 0.477729
1661 1 0.238954 0.039514 0.345553
2016 1 0.178963 0.0907636 0.339782
1703 1 0.0409415 0.202962 0.339364
1598 1 0.101363 0.0408738 0.416009
1988 1 0.152212 0.0430144 0.254465
169 1 0.0261842 0.192741 0.249165
136 1 0.181453 0.0562632 0.415755
545 1 0.128363 0.0158555 0.485411
1563 1 0.110403 0.234661 0.356093
695 1 0.225844 0.00638572 0.447476
1364 1 0.0503783 0.131473 0.288659
12 1 0.0849997 0.0802046 0.329811
132 1 0.214704 0.0859673 0.496644
1041 1 0.223831 0.245972 0.472667
1743 1 0.246369 0.00122589 0.283097
632 1 0.11836 0.0868571 0.49763
1231 1 0.24385 0.0170842 0.533721
43 1 0.223134 0.239462 0.551293
118 1 0.119383 0.235353 0.584199
1688 1 0.136541 0.00804658 0.615199
2034 1 0.110653 0.171387 0.619393
965 1 0.113244 0.0980143 0.592612
1839 1 0.128792 0.152566 0.551174
8 1 0.0283919 0.106474 0.591801
1958 1 0.171316 0.0555648 0.568163
1010 1 0.0599389 0.137552 0.658839
135 1 0.0276475 0.00994046 0.712915
1198 1 0.215459 0.0429267 0.68365
1093 1 0.100615 0.0723667 0.693552
1536 1 0.168474 0.205838 0.652605
855 1 0.087593 0.0325882 0.557882
454 1 0.171419 0.223498 0.727093
1985 1 0.0786825 0.209768 0.52501
1525 1 0.164501 0.0870022 0.641542
780 1 0.117168 0.144936 0.704233
1982 1 0.098082 0.229109 0.726875
2046 1 0.242071 0.106888 0.74795
1344 1 0.00307682 0.0410602 0.608878
40 1 0.209872 0.164562 0.52901
698 1 0.0485347 0.163444 0.731721
1147 1 0.00326044 0.171688 0.613913
300 1 0.131168 0.00531276 0.712766
349 1 0.187263 0.156688 0.597399
1108 1 0.197495 0.156092 0.706959
297 1 0.025716 0.244733 0.585216
21 1 0.0163552 0.0840067 0.706102
713 1 0.235019 0.221829 0.699043
776 1 0.232768 0.217309 0.626742
215 1 0.000542918 0.0710153 0.533289
959 1 0.0629954 0.136242 0.52339
221 1 0.230034 0.111935 0.654469
467 1 0.0645288 0.0114423 0.646583
840 1 0.155909 0.234599 0.518391
96 1 0.028667 0.241447 0.748719
1184 1 0.244305 0.0761973 0.590404
1351 1 0.0488142 0.179882 0.963334
1822 1 0.00581111 0.122804 0.93248
279 1 0.0507343 0.050609 0.952146
823 1 0.184766 0.0869906 0.821907
658 1 0.118738 0.178553 0.945911
1197 1 0.148596 0.204979 0.8355
1586 1 0.062487 0.0320568 0.774546
818 1 0.117571 0.109278 0.775911
1974 1 0.083711 0.19908 0.792932
1438 1 0.183981 0.139743 0.882204
1117 1 0.0796889 0.0124961 0.893888
251 1 0.121396 0.0698999 0.852831
802 1 0.229459 0.186088 0.845893
727 1 0.190088 0.0273407 0.883325
623 1 0.0679053 0.0999249 0.903612
1817 1 0.176269 0.166579 0.773565
1426 1 0.0842251 0.20676 0.868864
602 1 0.124799 0.0686466 0.947494
1647 1 0.203218 0.0817796 0.937169
1446 1 0.221182 0.227923 0.783033
1826 1 0.191824 0.230558 0.901659
296 1 0.0390208 0.0564926 0.841858
530 1 0.229246 0.162323 0.935934
1230 1 0.181708 0.208063 0.97068
290 1 0.0521031 0.128022 0.806578
192 1 0.0932559 0.118199 0.994026
533 1 0.125877 0.00497639 0.830568
354 1 0.176893 0.0376776 0.760891
1213 1 0.00302037 0.220263 0.845953
398 1 0.102143 0.252495 0.0922367
19 1 0.154472 0.260145 0.0201571
294 1 0.021781 0.262499 0.141737
830 1 0.0562898 0.401473 0.0756418
1254 1 0.236315 0.25927 0.171926
873 1 0.12112 0.307508 0.204885
1682 1 0.206345 0.369117 0.0924354
457 1 0.158523 0.319972 0.142002
1524 1 0.126363 0.384385 0.103934
1037 1 0.132454 0.450934 0.136299
839 1 0.0140355 0.337852 0.0997036
1639 1 0.0727826 0.363729 0.238396
558 1 0.03667 0.482279 0.0170652
1957 1 0.175581 0.459787 0.205151
676 1 0.197007 0.4426 0.0927799
362 1 0.0689075 0.400778 0.150335
395 1 0.197636 0.284986 0.0718548
1238 1 0.0109013 0.317447 0.029207
908 1 0.0254387 0.420809 0.239397
1589 1 0.12821 0.438298 0.05791
764 1 0.197427 0.308376 0.244691
495 1 0.100789 0.326704 0.0624869
2017 1 0.181449 0.394243 0.155647
117 1 0.0751779 0.464115 0.192559
897 1 0.240053 0.463783 0.156695
778 1 0.124248 0.408384 0.207266
1795 1 0.206117 0.386067 0.233457
517 1 0.16021 0.378596 0.0138866
503 1 0.0644234 0.32442 0.159197
2021 1 0.235583 0.345917 0.171104
1153 1 0.00657049 0.477375 0.190754
1850 1 0.0055351 0.35402 0.181561
1592 1 0.211473 0.438851 0.0135189
1158 1 0.0592716 0.494896 0.114898
144 1 0.117456 0.412419 0.440228
1691 1 0.0306771 0.440237 0.408722
760 1 0.136495 0.424141 0.348102
1767 1 0.0928592 0.471124 0.387902
1673 1 0.0598583 0.478822 0.317093
900 1 0.145395 0.445469 0.275542
1066 1 0.188467 0.469493 0.370465
157 1 0.240553 0.306846 0.410939
110 1 0.23166 0.248795 0.277872
435 1 0.010159 0.425163 0.340049
190 1 0.192411 0.447571 0.462956
487 1 0.024718 0.257169 0.411524
1378 1 0.0317628 0.354194 0.30182
217 1 0.204388 0.37396 0.459584
104 1 0.0315111 0.369284 0.388992
1460 1 0.0533016 0.29921 0.353325
1794 1 0.0993152 0.486813 0.488434
1812 1 0.112902 0.312485 0.278664
387 1 0.216822 0.396465 0.338898
386 1 0.143864 0.328741 0.465268
1212 1 0.165291 0.361297 0.391952
1422 1 0.15133 0.29226 0.34667
239 1 0.167766 0.357409 0.299151
1917 1 0.105146 0.351954 0.353082
1049 1 0.0610474 0.29142 0.483546
1138 1 0.0829123 0.404944 0.299653
946 1 0.0634753 0.378959 0.485194
196 1 0.167383 0.266572 0.420858
1868 1 0.0107576 0.256743 0.297553
627 1 0.233471 0.453264 0.255512
1549 1 0.0189126 0.448502 0.487365
954 1 0.154585 0.342098 0.637151
317 1 0.153261 0.471753 0.616158
1663 1 0.156104 0.38514 0.537644
550 1 0.16814 0.459911 0.542251
1611 1 0.0480946 0.396437 0.657936
436 1 0.121684 0.284767 0.677671
1154 1 0.230724 0.344155 0.634492
1900 1 0.0273575 0.27009 0.668574
1802 1 0.0632107 0.472539 0.590613
468 1 0.206702 0.288993 0.685295
2027 1 0.245795 0.497365 0.505763
1204 1 0.142053 0.31275 0.55633
1801 1 0.0859766 0.313195 0.62022
1574 1 0.213359 0.474661 0.660937
1604 1 0.0802965 0.300864 0.742917
979 1 0.199668 0.405467 0.600081
401 1 0.0806803 0.360856 0.566661
1325 1 0.123395 0.420653 0.68635
1689 1 0.205495 0.400171 0.677651
748 1 0.0240209 0.486142 0.669866
416 1 0.0202002 0.343258 0.714902
1127 1 0.00993024 0.322099 0.570463
936 1 0.211984 0.332744 0.545068
904 1 0.105017 0.411783 0.616968
1384 1 0.0113652 0.403184 0.56579
617 1 0.0990771 0.370164 0.736763
333 1 0.0858796 0.429275 0.536647
556 1 0.233077 0.410267 0.525523
309 1 0.161665 0.47951 0.722759
1782 1 0.199772 0.282683 0.604387
1034 1 0.2386 0.404155 0.74788
815 1 0.00298927 0.251886 0.513585
762 1 0.0810786 0.439242 0.747355
431 1 0.042559 0.410525 0.999946
1003 1 0.169223 0.475566 0.952787
1157 1 0.141005 0.279199 0.862933
1092 1 0.133649 0.476279 0.795208
1949 1 0.202084 0.31032 0.772752
1659 1 0.0485382 0.419738 0.925935
945 1 0.0903265 0.396901 0.833135
1261 1 0.165677 0.405072 0.758122
200 1 0.248772 0.320603 0.898981
1551 1 0.195309 0.408437 0.937553
1118 1 0.168977 0.328806 0.919494
1708 1 0.0302857 0.291255 0.800293
1054 1 0.113412 0.421021 0.966674
538 1 0.240488 0.487058 0.914434
1105 1 0.0102098 0.364577 0.867597
358 1 0.0918905 0.349192 0.966469
532 1 0.109439 0.273212 0.961718
1240 1 0.216299 0.277178 0.838864
434 1 0.131257 0.378581 0.890942
172 1 0.0339915 0.380719 0.789005
1636 1 0.236499 0.37314 0.986558
1999 1 0.17521 0.351668 0.826772
1449 1 0.0592805 0.495962 0.870204
1459 1 0.117702 0.45609 0.863299
1921 1 0.137317 0.252346 0.784624
1220 1 0.0774731 0.324686 0.890502
680 1 0.0035923 0.448315 0.834005
1296 1 0.100449 0.325051 0.81493
1280 1 0.196043 0.416538 0.864968
159 1 0.213793 0.294593 0.99941
106 1 0.0088537 0.486958 0.749061
1780 1 0.0290902 0.269278 0.896137
1995 1 0.0137647 0.253956 0.971227
1530 1 0.0227083 0.330517 0.945286
1849 1 0.0548527 0.569666 0.0853077
1641 1 0.110953 0.598954 0.12907
1336 1 0.197705 0.662698 0.178995
1576 1 0.21791 0.580611 0.139313
1008 1 0.166227 0.506001 0.0309603
1528 1 0.0636959 0.54799 0.201015
1339 1 0.159571 0.649339 0.0655914
1813 1 0.0972853 0.721715 0.243999
524 1 0.141556 0.685789 0.138111
1858 1 0.0960513 0.744784 0.165731
50 1 -0.000817614 0.52155 0.0647208
1014 1 0.00961458 0.559708 0.140436
1023 1 0.206157 0.524093 0.191034
941 1 0.147831 0.573674 0.0681249
1998 1 0.127071 0.517278 0.173793
1257 1 0.0914735 0.669654 0.0716999
1141 1 0.00980535 0.654003 0.110948
1032 1 0.155442 0.594184 0.184207
319 1 0.161202 0.52051 0.248375
1437 1 0.0466443 0.61909 0.173142
1775 1 0.0415708 0.701411 0.180902
109 1 0.224618 0.658467 0.102762
880 1 0.0261401 0.621874 0.0199781
1401 1 0.0705843 0.658112 0.229201
1203 1 0.22591 0.726903 0.0755051
1424 1 0.180775 0.615586 0.00234332
404 1 0.222249 0.582953 0.0638825
1891 1 0.2274 0.597499 0.20657
1683 1 0.135409 0.730013 0.0691875
700 1 0.188209 0.51467 0.104422
506 1 0.215976 0.693029 0.0107586
443 1 0.0154808 0.731852 0.112692
682 1 0.0990459 0.513163 0.0525188
1485 1 0.0663759 0.741929 0.0344955
403 1 0.0250472 0.599551 0.248074
310 1 0.187947 0.645084 0.490851
1102 1 0.211483 0.598991 0.295905
1377 1 0.117751 0.605419 0.350204
1273 1 0.159292 0.539473 0.332887
1783 1 0.0785998 0.642464 0.299258
546 1 0.0499779 0.693516 0.479338
1721 1 0.232477 0.513437 0.412313
166 1 0.100097 0.570585 0.487552
543 1 0.0855332 0.722688 0.346122
741 1 0.0668025 0.556543 0.310179
480 1 0.166265 0.522307 0.469082
518 1 0.0310729 0.513426 0.438545
1155 1 0.0205664 0.693424 0.31573
1307 1 0.244725 0.664241 0.291214
796 1 0.211009 0.723049 0.251031
919 1 0.126214 0.686001 0.492401
685 1 0.069747 0.627175 0.45511
1082 1 0.228669 0.513755 0.323039
1144 1 0.123159 0.701074 0.407257
1167 1 0.0874507 0.546092 0.392136
1871 1 0.14621 0.598546 0.435826
120 1 0.18553 0.712181 0.444501
466 1 0.149714 0.730314 0.295556
924 1 0.202582 0.580198 0.373999
1218 1 0.180238 0.671072 0.322564
925 1 0.0479322 0.619271 0.362956
175 1 0.0151222 0.507712 0.263812
377 1 0.0508119 0.691131 0.405457
1274 1 0.18379 0.651707 0.396923
1571 1 0.138415 0.61199 0.256925
999 1 0.170244 0.568413 0.628395
1971 1 0.185959 0.571274 0.703098
456 1 0.102906 0.508532 0.660127
337 1 0.184396 0.645257 0.66876
445 1 0.11598 0.551709 0.568119
1096 1 0.123633 0.684642 0.584113
393 1 0.0415031 0.670127 0.677241
870 1 0.0792862 0.73717 0.537782
149 1 0.220712 0.642051 0.590278
653 1 0.12703 0.690419 0.671056
67 1 0.028284 0.692964 0.60018
651 1 0.0332547 0.54781 0.596856
255 1 0.0638621 0.650351 0.543103
1546 1 0.209708 0.580677 0.532456
1458 1 0.0605272 0.616564 0.627664
777 1 0.241468 0.624544 0.713619
450 1 0.2468 0.712801 0.606783
397 1 0.0953827 0.522195 0.73168
2014 1 0.0721959 0.740804 0.639795
783 1 0.142811 0.744981 0.717653
308 1 0.208351 0.714054 0.683983
652 1 0.149813 0.616976 0.546129
683 1 0.110562 0.597352 0.681041
73 1 0.00861898 0.569993 0.662639
1928 1 0.193144 0.707159 0.548181
1540 1 0.0174306 0.608602 0.503564
70 1 0.0447529 0.538891 0.520757
1382 1 0.0326924 0.567461 0.733222
1107 1 0.221903 0.511526 0.593017
1929 1 0.159615 0.741174 0.63816
1695 1 0.147564 0.650162 0.734066
1395 1 0.0564652 0.746194 0.712468
793 1 0.00239748 0.596876 0.802853
527 1 0.210981 0.579528 0.769613
718 1 0.0754693 0.620103 0.82005
1534 1 0.198157 0.581405 0.861304
1818 1 0.246535 0.684068 0.88796
1224 1 0.232279 0.637433 0.814264
1931 1 0.142943 0.602234 0.919582
486 1 0.0992482 0.735244 0.843488
1109 1 0.0673557 0.536721 0.803724
801 1 0.10679 0.670157 0.90943
711 1 0.119087 0.566656 0.857094
1505 1 0.00332195 0.690339 0.750393
1031 1 0.113444 0.642497 0.990707
867 1 0.133307 0.549498 0.973233
878 1 0.230624 0.633751 0.950057
675 1 0.172818 0.736786 0.843603
1331 1 0.180145 0.510094 0.872951
1372 1 0.064327 0.567071 0.945458
99 1 0.209286 0.548206 0.948086
1968 1 0.164346 0.651463 0.854084
950 1 0.206862 0.709841 0.777848
1920 1 0.0384841 0.675033 0.858398
1011 1 0.135126 0.583036 0.778089
1618 1 0.0562719 0.677274 0.966042
1349 1 0.0148084 0.557992 0.883028
1543 1 0.0949482 0.691701 0.777867
1432 1 0.201514 0.727426 0.934054
1139 1 0.00314279 0.626593 0.922231
1824 1 0.206706 0.50876 0.77283
473 1 0.020205 0.505295 0.937491
681 1 0.246739 0.748268 0.849747
1856 1 0.102704 0.502447 0.928606
1666 1 0.0543786 0.637184 0.754205
234 1 0.0715464 0.96936 0.0607465
576 1 0.0925223 0.809811 0.0625188
758 1 0.249863 0.861214 0.0167946
391 1 0.17474 0.79195 0.0606958
141 1 0.0421003 0.825654 0.121562
1067 1 0.145511 0.989241 0.0762983
1383 1 0.136365 0.875112 0.073109
502 1 0.21685 0.933477 0.0932904
97 1 0.201832 0.854592 0.11041
1962 1 0.0647593 0.898796 0.0996355
691 1 0.0330954 0.82496 0.0125708
587 1 0.0613446 0.880483 0.172675
1935 1 0.188056 0.819543 0.201476
615 1 0.191055 0.90435 0.17016
1090 1 0.234751 0.792012 0.118533
2048 1 0.125626 0.825603 0.150168
845 1 0.0432567 0.966587 0.139015
31 1 0.0725659 0.929562 0.223013
197 1 0.132945 0.860263 0.234548
1645 1 0.175996 0.988321 0.190156
123 1 0.11791 0.789 0.22782
1048 1 0.229813 0.991613 0.0365921
797 1 0.136765 0.847934 0.00373068
1588 1 0.0509615 0.811381 0.217572
785 1 0.180729 0.9122 0.0129487
233 1 0.223733 0.770616 0.00597738
722 1 0.116445 0.939485 0.157554
1913 1 0.233483 0.953952 0.219701
1072 1 0.0778286 0.888305 -0.00190929
1143 1 0.00269935 0.906659 0.223395
1940 1 0.23336 0.872724 0.231607
1171 1 0.00268146 0.764988 0.176581
447 1 0.174592 0.763512 0.15103
709 1 0.0970382 0.948413 0.380012
1225 1 0.193517 0.917248 0.294704
112 1 0.215146 0.938511 0.474421
1160 1 0.0561545 0.846456 0.28077
1465 1 0.0807087 0.776075 0.409306
799 1 0.185317 0.845686 0.280905
1996 1 0.167139 0.799552 0.44633
1026 1 0.249505 0.794784 0.397793
1491 1 0.205882 0.85748 0.432989
1169 1 0.0542179 0.976386 0.452963
584 1 0.0214476 0.904772 0.444769
1729 1 0.150893 0.912153 0.434714
914 1 0.0134706 0.960347 0.364051
752 1 0.148782 0.843501 0.386838
384 1 0.0659568 0.825904 0.359905
1057 1 0.0114805 0.883901 0.370003
1896 1 0.0503804 0.787637 0.487582
893 1 0.0162947 0.917195 0.301964
874 1 0.239318 0.796903 0.478191
2010 1 0.090103 0.847618 0.439714
1848 1 0.115017 0.889474 0.313239
1373 1 0.13262 0.965692 0.262005
2029 1 0.152982 0.985528 0.418542
1865 1 0.166106 0.759764 0.383798
1229 1 0.243792 0.863326 0.366498
1188 1 0.230009 0.776887 0.317666
406 1 0.020995 0.786177 0.312301
490 1 0.210643 0.947414 0.375594
1113 1 0.0178398 0.834976 0.429479
707 1 0.233377 0.867245 0.500529
1174 1 0.157512 0.988078 0.343495
1354 1 0.0857206 0.990439 0.315375
1087 1 0.0275844 0.829714 0.74233
562 1 0.0736754 0.934533 0.680667
1908 1 0.0736435 0.888528 0.590477
1122 1 0.135601 0.890796 0.7264
444 1 0.00393321 0.888622 0.660211
417 1 0.223871 0.928184 0.728015
1654 1 0.142503 0.925997 0.600222
820 1 0.244033 0.796707 0.601222
485 1 0.00431339 0.939693 0.589199
1233 1 0.102749 0.94025 0.507783
1844 1 0.182782 0.794274 0.555015
1956 1 0.0398464 0.799361 0.573255
1457 1 0.0430174 0.811694 0.645522
477 1 0.184511 0.865269 0.602199
1418 1 0.191353 0.854557 0.681395
1311 1 0.166365 0.885035 0.531268
357 1 0.126564 0.815263 0.703709
154 1 0.105648 0.808202 0.602818
71 1 0.131671 0.826002 0.507111
1206 1 0.0157872 0.902899 0.729378
1298 1 0.162346 0.97336 0.537444
1281 1 0.0437715 0.883799 0.514108
710 1 0.22687 0.997475 0.611706
1214 1 0.214982 0.935392 0.570622
373 1 0.00899641 0.995285 0.532477
1681 1 0.173703 0.950496 0.670059
730 1 0.0777488 0.966445 0.584012
343 1 0.112749 0.866005 0.650345
1772 1 0.148507 0.782396 0.894773
1035 1 0.0738688 0.761926 0.906169
2022 1 0.0928575 0.989204 0.990329
678 1 0.12536 0.873522 0.911346
1429 1 0.150041 0.946628 0.774504
519 1 0.0696997 0.926256 0.8646
601 1 0.0753913 0.826722 0.864152
1433 1 0.180868 0.928904 0.913905
1670 1 0.188085 0.833615 0.948021
1987 1 0.194194 0.998196 0.969145
173 1 0.242498 0.803203 0.908678
1827 1 0.0827819 0.825385 0.954359
1094 1 0.233701 0.968884 0.876732
430 1 0.0727068 0.935206 0.775196
662 1 0.149524 0.940681 0.851997
1694 1 0.0168766 0.822703 0.922776
374 1 0.142545 0.801122 0.815507
672 1 0.00485538 0.803053 0.808783
955 1 0.181973 0.810209 0.757545
1556 1 0.118791 0.937079 0.947868
1828 1 0.137368 0.872702 0.818797
1071 1 0.0784791 0.793545 0.789914
591 1 0.185549 0.838624 0.866081
1851 1 0.0393453 0.940716 0.954602
478 1 0.197848 0.893788 0.790699
1068 1 0.0245978 0.759751 0.968772
1076 1 0.21567 0.989577 0.801453
266 1 0.111491 0.751038 0.967204
352 1 0.00943023 0.753264 0.861886
181 1 0.249835 0.769321 0.781671
1056 1 0.380183 0.0707855 0.0587925
1462 1 0.439654 0.237487 0.14287
522 1 0.258437 0.0666264 0.0767116
232 1 0.308607 0.0700929 0.188385
2008 1 0.396393 0.238996 0.206826
1025 1 0.447458 0.2006 0.00280959
252 1 0.348314 0.110719 0.118136
987 1 0.30155 0.0365978 0.014351
1597 1 0.251808 0.015547 0.176475
1130 1 0.331966 0.12258 0.0359449
1196 1 0.297058 0.228431 0.225371
213 1 0.345397 0.247876 0.149654
1573 1 0.406648 0.149696 0.224983
274 1 0.341698 0.0357546 0.111453
60 1 0.420078 0.155528 0.106209
491 1 0.50055 0.0748065 0.202091
218 1 0.359443 0.225928 0.0116859
1020 1 0.3648 0.176072 0.16236
1439 1 0.497957 0.0795178 0.114348
82 1 0.442828 0.0177707 0.0291912
476 1 0.361602 0.196565 0.0880447
629 1 0.406288 0.0780113 0.191895
798 1 0.312589 0.143363 0.202803
1215 1 0.291562 0.182856 0.0708806
956 1 0.436542 0.027397 0.133784
335 1 0.448879 0.0961783 0.0574211
770 1 0.462433 0.130748 0.165038
1126 1 0.468555 0.200584 0.073614
510 1 0.474511 0.209685 0.20157
1271 1 0.465287 0.0131076 0.226928
1759 1 0.394311 0.00359138 0.189219
749 1 0.257935 0.246558 0.0982453
918 1 0.402422 0.153583 0.0377141
34 1 0.311213 0.236753 0.308353
578 1 0.440965 0.0912582 0.257585
1059 1 0.466423 0.0382165 0.301475
938 1 0.329295 0.196307 0.463323
1012 1 0.327785 0.013114 0.342646
1487 1 0.366656 0.214955 0.398275
1863 1 0.339983 0.104232 0.464235
1867 1 0.2734 0.0724772 0.442912
1601 1 0.374246 0.17643 0.332785
1787 1 0.33613 0.173426 0.267479
1115 1 0.336422 0.148754 0.404695
1656 1 0.403884 0.102036 0.42197
341 1 0.387961 0.0143789 0.265051
1081 1 0.286862 0.187872 0.361498
1017 1 0.428381 0.176613 0.398394
1425 1 0.341888 0.0921442 0.250952
1526 1 0.303892 0.116887 0.34221
523 1 0.410727 0.0214247 0.349168
433 1 0.255089 0.132748 0.274953
1248 1 0.43981 0.130753 0.331383
544 1 0.358656 0.0404342 0.402645
1417 1 0.488531 0.0650521 0.380377
289 1 0.268832 0.159412 0.477308
1952 1 0.387326 0.229986 0.279193
463 1 0.402715 0.179455 0.469693
1172 1 0.368789 0.0735017 0.321285
1907 1 0.317324 0.0437972 0.493102
126 1 0.466884 0.0159423 0.44426
127 1 0.392228 0.0478205 0.465311
1808 1 0.311204 0.0197909 0.254453
1000 1 0.497039 0.041244 0.647801
701 1 0.296612 0.132458 0.690662
1221 1 0.412559 0.223772 0.590811
1718 1 0.291624 0.202031 0.536501
1177 1 0.347742 0.0710343 0.557537
1146 1 0.357482 0.188104 0.717867
56 1 0.297255 0.204385 0.661354
962 1 0.490797 0.117406 0.641089
1375 1 0.405031 0.0266934 0.571908
608 1 0.352485 0.234315 0.52649
1051 1 0.332831 0.123168 0.609619
276 1 0.329937 0.0171294 0.72241
347 1 0.444122 0.116093 0.713357
1835 1 0.284132 0.110166 0.526895
1036 1 0.503475 0.171448 0.593947
887 1 0.366021 0.114918 0.677093
1200 1 0.363644 0.162125 0.553026
539 1 0.450199 0.20657 0.654778
1677 1 0.357637 0.0346529 0.650044
628 1 0.417894 0.116206 0.514367
1216 1 0.369222 0.196717 0.64337
1 1 0.428215 0.135539 0.598613
307 1 0.429289 0.0785005 0.646091
684 1 0.477207 0.0695343 0.501412
2024 1 0.260146 0.154176 0.584178
1243 1 0.475166 0.0833645 0.578317
1797 1 0.28358 0.0325173 0.648849
237 1 0.26429 0.0304176 0.742258
1513 1 0.473503 0.0341977 0.72239
130 1 0.435091 0.21676 0.730642
747 1 0.400965 0.0522926 0.705458
142 1 0.483841 0.246662 0.586689
1428 1 0.288712 0.20188 0.746964
1263 1 0.37417 0.121671 0.748374
1443 1 0.348711 0.248965 0.762248
1136 1 0.297322 0.17405 0.895017
1609 1 0.358414 0.0644483 0.976029
1922 1 0.341672 0.0457061 0.869494
423 1 0.257852 0.104138 0.885023
1714 1 0.451921 0.205626 0.891851
1902 1 0.497765 0.0993467 0.909189
1044 1 0.332472 0.116032 0.84265
148 1 0.268943 0.0514641 0.836399
370 1 0.472876 0.130534 0.973308
851 1 0.348067 0.239605 0.930337
18 1 0.349432 0.157736 0.963672
376 1 0.270147 0.141957 0.80474
1324 1 0.471683 0.0350172 0.957031
207 1 0.435727 0.136989 0.851767
1469 1 0.336842 0.199181 0.827886
1816 1 0.374776 0.0624094 0.798589
1723 1 0.274371 0.244795 0.897829
86 1 0.4468 0.0746305 0.787373
1684 1 0.469204 0.149058 0.78136
990 1 0.307658 0.0813145 0.77658
304 1 0.266004 0.0329699 0.935665
1029 1 0.434073 0.0547232 0.873559
1805 1 0.393586 0.108272 0.932619
285 1 0.379997 0.180088 0.897248
439 1 0.285773 0.118616 0.956723
1542 1 0.420222 0.196339 0.801074
1507 1 0.290051 0.212964 0.963175
644 1 0.30962 0.000634065 0.789254
380 1 0.338936 0.28193 0.0866003
1312 1 0.337486 0.346858 0.0486017
849 1 0.36477 0.395442 0.241572
593 1 0.453265 0.309498 0.21168
966 1 0.389327 0.394832 0.0137803
1616 1 0.40609 0.325605 0.0355394
270 1 0.428861 0.361424 0.0961961
720 1 0.411722 0.485309 0.10872
1946 1 0.32594 0.363132 0.189077
288 1 0.27393 0.412362 0.0479634
1249 1 0.317462 0.447017 0.156601
202 1 0.476364 0.444572 0.138042
1990 1 0.446067 0.276727 0.0707705
1142 1 0.271155 0.316863 0.228948
1326 1 0.289816 0.272115 0.0254249
841 1 0.49578 0.312984 0.133207
1631 1 0.263567 0.337666 0.0586315
633 1 0.496158 0.367146 0.211045
826 1 0.287584 0.487504 0.218156
1897 1 0.397112 0.384639 0.17646
201 1 0.417888 0.304136 0.144072
59 1 0.45565 0.468316 0.204729
735 1 0.471437 0.35827 0.0330251
1420 1 0.380097 0.47068 0.196538
1397 1 0.358277 0.342687 0.125812
1976 1 0.280066 0.386705 0.121461
1991 1 0.355623 0.431838 0.0698793
419 1 0.288625 0.297115 0.140442
1497 1 0.366754 0.30903 0.209366
866 1 0.438384 0.429128 0.0634058
1745 1 0.28062 0.410776 0.223997
94 1 0.433868 0.414373 0.489717
1284 1 0.328366 0.294562 0.396998
854 1 0.354531 0.426783 0.354614
2043 1 0.368984 0.469084 0.422213
621 1 0.387305 0.396578 0.416071
646 1 0.435745 0.492618 0.412624
1975 1 0.469407 0.41704 0.411882
589 1 0.312815 0.367086 0.35083
323 1 0.256142 0.306379 0.337087
686 1 0.460591 0.341009 0.474005
1906 1 0.494115 0.337755 0.372263
655 1 0.384773 0.349561 0.471591
1857 1 0.300203 0.451496 0.286312
489 1 0.283838 0.443196 0.475036
143 1 0.267454 0.369972 0.280325
755 1 0.370432 0.278971 0.34061
372 1 0.402731 0.439374 0.291996
61 1 0.295117 0.464608 0.379585
905 1 0.421602 0.336001 0.339732
1773 1 0.306907 0.357181 0.496682
1246 1 0.461793 0.263754 0.362792
2 1 0.431661 0.355168 0.269574
894 1 0.407434 0.29655 0.406293
978 1 0.455733 0.250077 0.443351
152 1 0.271773 0.37181 0.417692
2020 1 0.454128 0.403952 0.335833
1403 1 0.350895 0.33644 0.281015
980 1 0.48519 0.412578 0.263283
241 1 0.358033 0.423968 0.482765
83 1 0.451762 0.285386 0.285562
1578 1 0.349736 0.496913 0.26035
1966 1 0.469653 0.486518 0.276148
1993 1 0.468201 0.416962 0.704422
982 1 0.396979 0.367885 0.571855
1811 1 0.359422 0.314895 0.528805
382 1 0.380101 0.332175 0.639617
577 1 0.300827 0.493347 0.62274
944 1 0.393846 0.403856 0.706275
772 1 0.437966 0.33505 0.686777
1886 1 0.482181 0.47615 0.60582
1754 1 0.353991 0.270058 0.599035
1413 1 0.417331 0.473864 0.652497
1881 1 0.444021 0.311528 0.555219
631 1 0.287328 0.417447 0.687484
862 1 0.285891 0.278088 0.732068
1732 1 0.386121 0.489161 0.510293
1989 1 0.337034 0.332172 0.721111
1845 1 0.294388 0.283594 0.647326
808 1 0.4356 0.405774 0.63148
107 1 0.332848 0.416779 0.633139
636 1 0.440811 0.288492 0.630352
1938 1 0.317689 0.35273 0.598413
1260 1 0.332664 0.451335 0.733871
3 1 0.267096 0.432708 0.592235
773 1 0.422203 0.253301 0.507984
1434 1 0.45769 0.488872 0.511289
1963 1 0.498563 0.413337 0.564705
35 1 0.421211 0.440981 0.569447
1520 1 0.270031 0.346712 0.703657
883 1 0.319551 0.440261 0.539611
1140 1 0.279633 0.284461 0.568013
581 1 0.379555 0.265669 0.684931
704 1 0.49429 0.501595 0.738672
742 1 0.296842 0.271646 0.497338
906 1 0.404759 0.495459 0.841854
1175 1 0.364313 0.406421 0.844403
1887 1 0.325601 0.368325 0.975618
572 1 0.416771 0.335549 0.96391
1944 1 0.462948 0.399861 0.9592
647 1 0.378549 0.466575 0.968939
339 1 0.439683 0.327902 0.822973
888 1 0.4734 0.47394 0.923315
1219 1 0.354052 0.297027 0.993924
133 1 0.455169 0.446314 0.833702
1512 1 0.322236 0.438661 0.932251
15 1 0.289474 0.257331 0.820814
400 1 0.281966 0.327886 0.823606
1861 1 0.350447 0.313868 0.801852
262 1 0.326723 0.476813 0.847841
1062 1 0.315599 0.378408 0.771869
334 1 0.265998 0.392113 0.86531
1255 1 0.372606 0.370268 0.902809
2013 1 0.411272 0.25235 0.962454
1452 1 0.403413 0.441829 0.89752
6 1 0.315365 0.306668 0.929823
960 1 0.456684 0.37027 0.888236
975 1 0.419537 0.255089 0.844238
1482 1 0.411931 0.284398 0.770991
1292 1 0.433177 0.447777 0.760482
1532 1 0.274637 0.461568 0.795168
74 1 0.266601 0.46793 0.974632
318 1 0.461686 0.382407 0.776255
641 1 0.383179 0.298267 0.888958
1024 1 0.389281 0.370789 0.780577
1644 1 0.498237 0.28713 0.959633
803 1 0.477126 0.31221 0.751363
1697 1 0.451275 0.472368 0.998184
394 1 0.479568 0.250472 0.788133
1040 1 0.375491 0.642511 0.183678
336 1 0.451899 0.57196 0.10247
242 1 0.319584 0.626077 0.231089
604 1 0.495733 0.711918 0.158385
293 1 0.345827 0.506947 0.115492
1547 1 0.349267 0.576998 0.0564424
211 1 0.302693 0.705858 0.0611193
1247 1 0.43719 0.744242 0.130465
1733 1 0.497408 0.545865 0.0263209
1367 1 0.354145 0.632539 0.00556013
1840 1 0.346055 0.652555 0.107916
1898 1 0.479926 0.542995 0.228327
786 1 0.493912 0.69175 0.0532113
1269 1 0.41181 0.671418 0.062143
411 1 0.268456 0.676156 0.220822
1483 1 0.358417 0.547808 0.201003
1752 1 0.299836 0.586496 0.113092
1945 1 0.45498 0.595909 0.181915
295 1 0.373461 0.580868 0.128754
1821 1 0.282363 0.541134 0.171884
1504 1 0.461505 0.646621 0.115551
225 1 0.266587 0.744101 0.173585
1825 1 0.287086 0.630356 0.1681
1300 1 0.279078 0.631764 0.0585631
1145 1 0.365721 0.712401 0.149729
16 1 0.329315 0.726188 0.209563
721 1 0.425134 0.532301 0.165736
1116 1 0.44867 0.6683 0.196508
1621 1 0.433853 0.743351 0.05493
1363 1 0.366784 0.743182 0.0806166
2041 1 0.477023 0.737997 0.242591
44 1 0.250727 0.507329 0.0394983
1725 1 0.395925 0.505217 0.0401254
1517 1 0.479736 0.502745 0.0889874
942 1 0.424706 0.640738 0.318931
449 1 0.413399 0.70224 0.264939
469 1 0.40802 0.684819 0.420948
1335 1 0.431676 0.577661 0.357926
1464 1 0.296277 0.512562 0.445356
997 1 0.361857 0.581047 0.317661
788 1 0.48973 0.689329 0.414368
1936 1 0.335572 0.668005 0.301798
448 1 0.468593 0.612036 0.261725
1495 1 0.361227 0.626553 0.373432
1114 1 0.485957 0.686499 0.31434
902 1 0.25998 0.729838 0.445426
1052 1 0.447183 0.565672 0.42823
1277 1 0.479785 0.561675 0.498413
48 1 0.37107 0.543811 0.427999
1490 1 0.484425 0.624797 0.37837
814 1 0.26159 0.656723 0.449139
1918 1 0.3314 0.692043 0.42821
1018 1 0.307406 0.553216 0.376796
379 1 0.41084 0.537236 0.261268
1258 1 0.394084 0.616614 0.252484
1321 1 0.289828 0.66658 0.365387
995 1 0.288678 0.603649 0.319437
787 1 0.284777 0.726124 0.321867
1650 1 0.391157 0.710938 0.355848
167 1 0.28529 0.537435 0.283572
1942 1 0.338729 0.595773 0.466181
1125 1 0.369222 0.506766 0.348948
98 1 0.442858 0.641207 0.46639
1168 1 0.379764 0.718149 0.489195
616 1 0.442276 0.507908 0.342346
1667 1 0.258597 0.582476 0.449825
1265 1 0.354906 0.744729 0.286609
1605 1 0.32095 0.722185 0.588535
1693 1 0.25254 0.510598 0.716831
206 1 0.295064 0.601345 0.588082
1480 1 0.444378 0.604589 0.709669
1394 1 0.35434 0.698514 0.670831
1652 1 0.450979 0.614809 0.553456
929 1 0.476676 0.544184 0.671529
766 1 0.405019 0.534704 0.732127
712 1 0.285426 0.650698 0.650603
831 1 0.367952 0.613194 0.698027
1545 1 0.346594 0.502378 0.679078
1630 1 0.463524 0.612338 0.628041
1905 1 0.400785 0.664473 0.73752
719 1 0.413514 0.657999 0.658813
594 1 0.275028 0.717855 0.731813
1348 1 0.361032 0.648892 0.52332
1612 1 0.376578 0.577689 0.612728
911 1 0.336975 0.535092 0.564941
827 1 0.403918 0.576888 0.499587
1293 1 0.290712 0.735448 0.658685
26 1 0.306103 0.569133 0.709496
1091 1 0.388575 0.696418 0.568536
534 1 0.287938 0.561742 0.521086
981 1 0.429534 0.721763 0.688919
367 1 0.355285 0.647981 0.614782
927 1 0.452088 0.710003 0.503044
1617 1 0.43524 0.539607 0.584871
1768 1 0.493864 0.697122 0.655865
1660 1 0.461485 0.684203 0.584078
240 1 0.272596 0.667898 0.540248
1290 1 0.253422 0.567586 0.648014
1419 1 0.321119 0.579181 0.857798
280 1 0.474274 0.537588 0.89049
1129 1 0.319383 0.626648 0.936087
7 1 0.255115 0.531784 0.854865
1380 1 0.269354 0.697777 0.961279
168 1 0.391987 0.529483 0.913321
1548 1 0.259528 0.60988 0.888939
1338 1 0.383029 0.71395 0.807337
789 1 0.463608 0.698753 0.776222
497 1 0.300296 0.532576 0.930837
884 1 0.458081 0.624305 0.811114