ITEM: TIMESTEP
100000
ITEM: NUMBER OF ATOMS
2048
ITEM: BOX BOUNDS pp pp pp
0.0000000000000000e+00 1.2699208415745595e+01
0.0000000000000000e+00 1.2699208415745595e+01
0.0000000000000000e+00 1.2699208415745595e+01
ITEM: ATOMS id type xs ys zs
47 1 0.185113 0.0109573 0.230632
838 1 0.181769 0.0256701 0.0781362
513 1 0.23515 0.219705 0.112535
885 1 0.22631 0.0611182 0.131398
675 1 0.121628 0.141725 0.173756
725 1 0.0371494 0.181555 0.212732
86 1 0.13756 0.224926 0.228873
246 1 0.0699454 0.0917864 0.133737
829 1 0.0920635 0.215678 0.162508
1322 1 0.186193 0.201252 0.16825
1766 1 0.064908 0.148087 0.0418
1065 1 0.0601266 0.106478 0.215211
571 1 0.0112274 0.0489835 0.156532
1140 1 0.0960211 0.222065 0.0217702
1257 1 0.0372591 0.166193 0.126638
1453 1 0.114631 0.165999 0.0988379
1646 1 0.0182861 0.0694165 0.0766854
1289 1 0.218659 0.0852836 0.0505581
1908 1 0.102638 0.0116384 0.101427
526 1 0.151948 0.0587966 0.16753
1184 1 0.141031 0.15487 0.0264207
1053 1 0.175622 0.219017 0.0443814
518 1 0.197072 0.148197 0.095251
276 1 0.127938 0.0862193 0.0788295
1596 1 0.0118583 0.205615 0.0399169
1299 1 0.207119 0.123794 0.171142
391 1 0.183143 0.149411 0.246228
1984 1 0.126046 0.0128196 0.023476
439 1 0.0892656 0.0181203 0.179456
926 1 0.0676371 0.230393 0.0917227
112 1 0.154419 0.243783 0.112
1396 1 0.0311654 0.134319 0.282425
950 1 0.118381 0.0732535 0.263525
36 1 0.171372 0.114541 0.32684
663 1 0.0257122 0.0404914 0.295552
808 1 0.142863 0.0762154 0.457575
1472 1 0.0356637 0.130178 0.467402
317 1 0.0976001 0.215804 0.30765
825 1 0.155079 0.200515 0.460886
1398 1 0.140791 0.202176 0.371404
904 1 0.00914658 0.22809 0.279136
379 1 0.148085 0.0545061 0.373966
2023 1 0.0874622 0.0674197 0.333916
420 1 0.0315826 0.0342958 0.383977
1063 1 0.147581 0.130848 0.400118
710 1 0.221346 0.0126098 0.32743
1936 1 0.0130478 0.00873606 0.495601
640 1 0.0079438 0.10325 0.356787
1456 1 0.0710015 0.0482166 0.457201
1539 1 0.0739576 0.108194 0.398269
1295 1 0.210568 0.0763506 0.420444
1820 1 0.203561 0.00504181 0.455486
958 1 0.0711243 0.184891 0.420407
1565 1 0.0798127 0.195902 0.502377
787 1 0.0872077 0.149386 0.341189
481 1 0.214102 0.176262 0.367567
1633 1 0.190477 0.208191 0.291139
1086 1 0.197568 0.234738 0.411505
1810 1 0.105543 0.149489 0.254898
850 1 0.225804 0.17433 0.462914
1523 1 0.210074 0.0658182 0.276543
356 1 0.246896 0.250539 0.467063
1467 1 0.00811888 0.235751 0.426078
1061 1 0.21636 0.0952218 0.579954
280 1 0.0446829 0.023342 0.707229
1582 1 0.0353044 0.0151459 0.612308
1706 1 0.135393 0.211211 0.623136
1876 1 0.065412 0.11808 0.585555
1450 1 0.0777936 0.192357 0.575009
1105 1 0.199329 0.151968 0.635851
61 1 0.0716063 0.158505 0.648321
85 1 0.217901 0.193648 0.574772
290 1 0.0875099 0.0466872 0.564894
321 1 0.14968 0.0679486 0.670142
1709 1 0.0840115 0.242507 0.717033
367 1 0.210406 0.218774 0.685399
925 1 0.00378865 0.179164 0.620787
168 1 0.129725 0.247233 0.542051
1193 1 0.198341 0.0258493 0.620641
113 1 0.146161 0.163126 0.538877
1550 1 0.240047 0.0246156 0.5533
638 1 0.138445 0.183289 0.710279
204 1 0.202178 0.119954 0.70184
855 1 0.00987221 0.0830249 0.529368
546 1 0.0157048 0.23422 0.503951
1586 1 0.14337 0.105999 0.591509
1592 1 0.0783337 0.0798792 0.657318
162 1 0.199707 0.0546691 0.732956
1995 1 0.0269033 0.126349 0.695502
797 1 0.171504 0.0475642 0.524338
660 1 0.0906893 0.105037 0.511732
120 1 0.0359781 0.247604 0.656603
1131 1 0.192975 0.115947 0.499848
1146 1 0.0979783 -0.000409537 0.653091
1874 1 0.084128 0.0337416 0.827762
896 1 0.233154 0.0413348 0.813089
1119 1 0.155911 0.0609482 0.812303
324 1 0.0182937 0.244845 0.78365
782 1 0.116112 0.0908654 0.879371
572 1 0.197174 0.0809536 0.874669
733 1 0.036519 0.0863197 0.857528
7 1 0.102621 0.235659 0.946851
1667 1 0.0339228 0.170665 0.764398
1343 1 0.0256948 0.188971 0.937831
423 1 0.162447 0.192051 0.822825
849 1 0.210517 0.132087 0.987276
1138 1 0.0442302 0.0961277 0.941208
1436 1 0.0536032 0.0848747 0.757991
1024 1 0.160511 0.220373 0.894695
548 1 0.214013 0.16527 0.873523
1386 1 0.170629 0.212772 0.970856
532 1 0.20421 0.140039 0.780761
1973 1 0.0889301 0.209047 0.798639
927 1 0.103439 0.090133 0.992764
327 1 0.0898128 0.0335474 0.930919
139 1 0.171955 0.0622328 0.950945
512 1 0.0889463 0.160632 0.964657
2 1 0.167337 0.0133836 0.882635
1879 1 0.027468 0.189384 0.841244
1887 1 0.159212 0.137262 0.92656
70 1 0.0923548 0.172352 0.886092
413 1 0.193667 0.228124 0.760207
1220 1 0.0846721 0.133005 0.815154
858 1 0.247801 0.197908 0.811271
1031 1 0.116514 0.0212638 0.75585
806 1 0.0100623 0.026015 0.905403
549 1 0.237201 0.183327 0.941618
1514 1 0.00718481 0.0411584 0.802276
389 1 0.217694 0.0278801 0.999681
607 1 0.141034 0.113296 0.759614
1475 1 0.245957 0.0496115 0.922152
1763 1 0.0361179 0.0495114 0.998497
1999 1 0.136531 0.28463 0.175794
2028 1 0.12762 0.472404 0.0309535
750 1 0.139398 0.282213 0.00578625
118 1 0.183658 0.427282 0.104457
1695 1 0.208658 0.292394 0.107704
494 1 0.212148 0.48883 0.0758486
646 1 0.111649 0.404181 0.00871074
237 1 0.0445941 0.350159 0.202415
152 1 0.0420287 0.318183 0.120699
1376 1 0.211729 0.283224 0.184507
305 1 0.217337 0.278839 0.0171717
362 1 0.208419 0.415538 0.210433
1026 1 0.10891 0.297737 0.0758436
1941 1 0.102563 0.3663 0.141198
1690 1 0.053471 0.428352 0.204026
1393 1 0.0313422 0.392985 0.131631
415 1 0.130679 0.451503 0.179817
1710 1 0.248185 0.34597 0.0473255
1719 1 0.182757 0.351172 0.151182
709 1 0.0511522 0.362315 0.0511808
1729 1 0.167217 0.314886 0.238072
747 1 0.0665638 0.473436 0.145261
514 1 0.206381 0.472944 0.156934
1313 1 0.0303737 0.256313 0.163491
737 1 0.0859224 0.424929 0.0840686
1861 1 0.182319 0.421824 0.0279465
1069 1 0.169334 0.35301 0.074936
708 1 0.0642304 0.49878 0.0709502
839 1 0.119573 0.391663 0.227506
1255 1 0.047743 0.285864 0.0340489
198 1 0.00385859 0.428456 0.0686458
1403 1 0.219944 0.389579 0.39019
1738 1 0.127679 0.285972 0.375358
271 1 0.114734 0.465813 0.470789
1829 1 0.0973968 0.424577 0.293262
1930 1 0.11927 0.328304 0.445405
190 1 0.086708 0.392099 0.482114
1966 1 0.0278374 0.430417 0.357142
149 1 0.00571949 0.375993 0.438646
275 1 0.107617 0.488428 0.344728
805 1 0.0624004 0.300748 0.331994
879 1 0.172614 0.401121 0.456969
186 1 0.218503 0.31019 0.410502
203 1 0.194294 0.488542 0.459774
509 1 -0.00359396 0.313236 0.293097
613 1 0.0164836 0.44778 0.277318
867 1 0.00616017 0.354056 0.365238
1666 1 0.133558 0.383068 0.345787
1594 1 0.239851 0.429487 0.46894
398 1 0.111449 0.336129 0.286473
1997 1 0.074543 0.376901 0.394245
37 1 0.192812 0.462619 0.335448
656 1 0.0472466 0.310168 0.423598
683 1 0.0376756 0.374642 0.274689
64 1 0.0676835 0.461141 0.41181
1977 1 0.191406 0.325908 0.335692
517 1 0.0797659 0.502577 0.251523
283 1 0.144951 0.448423 0.396968
1718 1 0.187193 0.38165 0.276572
1364 1 0.182291 0.289805 0.469
1648 1 0.220396 0.254666 0.33803
819 1 0.0278952 0.450341 0.498477
371 1 0.0612129 0.279646 0.257312
1172 1 0.246818 0.326317 0.485464
655 1 0.148596 0.467926 0.254734
1413 1 0.23395 0.29121 0.265059
1886 1 0.100615 0.255035 0.444505
749 1 0.151489 0.267822 0.678747
1314 1 0.247044 0.354506 0.635051
1424 1 0.202372 0.278797 0.550124
1125 1 0.0720426 0.337793 0.618903
1721 1 0.115812 0.365539 0.561102
1435 1 0.0396555 0.262771 0.578356
1175 1 0.0730241 0.312102 0.525148
1494 1 0.168497 0.439481 0.521374
918 1 0.00797803 0.465174 0.595887
89 1 0.160546 0.359872 0.663222
866 1 0.10573 0.403849 0.632859
832 1 0.15559 0.304167 0.610618
354 1 0.152989 0.444016 0.687429
1768 1 0.218413 0.426346 0.651271
610 1 0.0711555 0.439384 0.559784
1000 1 0.225361 0.310633 0.709804
1544 1 0.0194052 0.377192 0.524316
73 1 0.180826 0.391874 0.585362
680 1 0.0899155 0.384375 0.709622
1214 1 0.175317 0.346595 0.519445
568 1 0.224571 0.27371 0.625171
1757 1 0.0564213 0.44765 0.675037
446 1 0.0590056 0.316759 0.691984
986 1 0.145699 0.461035 0.600909
1084 1 0.234568 0.455759 0.579657
993 1 0.199185 0.391858 0.72393
1994 1 0.0164295 0.400511 0.724153
1868 1 0.0808406 0.50058 0.721639
1537 1 0.207033 0.466046 0.794898
624 1 0.164333 0.302087 0.922332
1394 1 0.154807 0.393039 0.790334
979 1 0.0209902 0.281993 0.950938
543 1 0.13215 0.453312 0.762568
1921 1 0.0752577 0.386316 0.784407
419 1 0.202991 0.371554 0.917156
1570 1 0.235304 0.406388 0.840915
1730 1 0.151013 0.428324 0.857119
1021 1 0.0190134 0.476459 0.797603
628 1 0.0338677 0.347669 0.858337
1367 1 0.200093 0.321974 0.787883
307 1 0.00501627 0.406631 0.800879
949 1 0.171698 0.432021 0.948488
462 1 0.24192 0.397722 0.982789
287 1 0.143311 0.349058 0.859951
480 1 0.0755171 0.442582 0.838038
1793 1 0.176877 0.343778 0.984625
1778 1 0.0269824 0.417384 0.905714
18 1 0.0839349 0.312009 0.805492
1844 1 0.0958403 0.275305 0.874827
1019 1 0.112333 0.38064 0.928451
967 1 0.0164535 0.333465 0.761511
713 1 0.0232369 0.470646 0.961024
798 1 0.165149 0.28048 0.838269
1247 1 0.0912949 0.320274 0.961366
17 1 0.200613 0.480644 0.885849
1441 1 0.245029 0.272358 0.852442
1905 1 0.228033 0.257795 0.942372
1894 1 0.100001 0.460038 0.944148
1431 1 0.229722 0.479614 1.00189
355 1 0.0416219 0.374203 0.973668
685 1 0.00281792 0.281141 0.861588
988 1 0.139636 0.285873 0.752304
1571 1 0.0815049 0.675019 0.220796
127 1 0.0537439 0.547465 0.138323
471 1 0.103043 0.605421 0.149354
1917 1 0.146947 0.541106 0.0558283
1556 1 0.00518607 0.738158 0.00502695
755 1 0.0115221 0.691536 0.187813
738 1 0.210917 0.539571 0.214759
1688 1 0.162307 0.654207 0.109183
1170 1 0.223165 0.613558 0.180655
170 1 0.0414475 0.64358 0.121202
634 1 0.200716 0.697352 0.15748
959 1 0.24134 0.636182 0.113745
1909 1 0.138475 0.700735 0.00592203
789 1 0.208213 0.622856 0.0417133
1711 1 0.126834 0.518583 0.126002
1672 1 0.0189404 0.51106 0.2033
1799 1 0.155143 0.653375 0.214547
1890 1 0.0148466 0.735288 0.125945
489 1 0.159548 0.725281 0.236165
199 1 0.112949 0.71842 0.152767
905 1 0.056557 0.711835 0.0655412
1736 1 0.0741348 0.655756 0.0164546
1607 1 0.07879 0.576593 0.0690285
1078 1 0.174825 0.579529 0.127344
553 1 0.0375876 0.618031 0.193897
1202 1 0.128426 0.537766 0.201155
1588 1 0.096332 0.601177 0.246066
380 1 0.134226 0.604737 0.0128878
418 1 0.0180431 0.577221 0.00169802
992 1 0.243357 0.534516 0.1487
983 1 0.0925092 0.54029 0.00128147
38 1 0.19358 0.733525 0.407192
81 1 0.107168 0.603624 0.481387
1814 1 0.247472 0.638853 0.263817
862 1 0.197855 0.730957 0.301759
381 1 0.177006 0.654875 0.349011
1321 1 0.221367 0.609902 0.399054
1377 1 0.0741863 0.663486 0.442274
1205 1 0.0271824 0.623578 0.39009
1419 1 0.0260429 0.575688 0.274921
608 1 0.225622 0.721 0.476978
451 1 0.0997031 0.651427 0.366109
1071 1 0.131523 0.686674 0.295309
2014 1 0.145975 0.542271 0.274258
345 1 0.167298 0.614845 0.283278
1159 1 0.187502 0.572269 0.341461
252 1 0.110903 0.720517 0.403175
1683 1 0.077053 0.733323 0.308263
840 1 0.133479 0.586763 0.404672
230 1 0.229894 0.529089 0.292816
1240 1 0.033046 0.696485 0.363117
1975 1 0.180979 0.567637 0.480526
1365 1 0.0942309 0.572569 0.321553
1060 1 0.0202591 0.704187 0.262524
1309 1 0.0564818 0.644787 0.304375
727 1 0.165409 0.66121 0.434077
1671 1 0.248835 0.539427 0.43559
1261 1 0.14735 0.732187 0.473984
827 1 0.0714365 0.533747 0.466752
1720 1 0.176537 0.515407 0.387496
524 1 0.0663444 0.546809 0.388849
110 1 0.211574 0.686707 0.694983
1643 1 0.0412652 0.603167 0.544476
1033 1 0.0718995 0.609079 0.632232
1560 1 0.228423 0.514213 0.520494
1479 1 0.223175 0.563784 0.689004
1383 1 0.017474 0.721355 0.697944
719 1 0.242277 0.667956 0.621455
723 1 0.174889 0.628153 0.655438
201 1 0.134001 0.717515 0.691228
326 1 0.187248 0.507974 0.646271
1488 1 0.0654439 0.707307 0.631466
1145 1 0.130448 0.570467 0.614377
41 1 0.154332 0.518315 0.537007
1288 1 0.0384481 0.523871 0.53513
1725 1 0.11204 0.639419 0.707737
1603 1 0.0393608 0.552004 0.67215
785 1 0.114557 0.556386 0.687337
1192 1 0.0700432 0.67889 0.533996
581 1 0.0846531 0.503197 0.615289
1699 1 0.212234 0.558471 0.596627
1442 1 0.159119 0.663088 0.514072
1832 1 0.181369 0.614549 0.736352
1520 1 0.0190733 0.647457 0.67531
652 1 0.115483 0.616244 0.553586
1702 1 9.78525e-05 0.648829 0.601123
1831 1 0.127685 0.670798 0.606939
545 1 0.121696 0.734404 0.550227
1465 1 0.176226 0.728032 0.628649
752 1 0.223284 0.720178 0.553687
1863 1 0.221617 0.636599 0.551145
903 1 0.0463545 0.746312 0.557412
228 1 0.19166 0.504079 0.725339
1614 1 0.0826173 0.52724 0.793157
1561 1 0.206143 0.594563 0.907724
1842 1 0.11737 0.673555 0.911998
1777 1 0.229702 0.536277 0.845817
414 1 0.0374106 0.68036 0.949443
793 1 0.166633 0.735995 0.92655
173 1 0.249506 0.645657 0.758189
939 1 0.164032 0.527218 0.927995
13 1 0.100806 0.652467 0.806522
1509 1 0.180319 0.646933 0.970148
1074 1 0.0512158 0.642788 0.881529
1057 1 0.05354 0.541879 0.931694
100 1 0.0622576 0.578442 0.84691
302 1 0.14315 0.709968 0.837034
229 1 0.128602 0.586215 0.896753
1088 1 0.223789 0.555166 0.77404
344 1 0.162457 0.684969 0.760905
167 1 0.108839 0.517391 0.875674
1612 1 0.178227 0.627505 0.825195
156 1 0.00460639 0.704958 0.888017
843 1 0.0681718 0.753113 0.762617
705 1 0.0333541 0.599046 0.766279
741 1 0.0832175 0.616231 0.949559
368 1 0.212752 0.708122 0.810163
1846 1 0.0676692 0.714304 0.841799
1946 1 0.203796 0.685552 0.879354
235 1 0.163524 0.547982 0.816575
294 1 0.0265913 0.689331 0.768897
769 1 0.114043 0.584856 0.758397
1525 1 0.0275712 0.507928 0.865775
1654 1 0.206534 0.737064 0.997478
28 1 0.196013 0.564906 0.993587
1675 1 0.21996 0.886603 0.214296
540 1 0.127357 0.926107 0.079642
822 1 0.00632877 0.89662 0.171773
493 1 0.202701 0.918094 0.122477
694 1 0.101522 0.948841 0.150634
1665 1 0.0474675 0.853617 0.220974
525 1 0.0568151 0.805964 0.0850232
98 1 0.0503793 0.830453 0.0104356
1173 1 0.107508 0.855747 0.0631174
1 1 0.0965541 0.790062 0.162131
846 1 0.0769352 0.873764 0.149232
1323 1 0.0255462 0.811172 0.157382
1006 1 0.028784 0.971646 0.139727
1373 1 0.145141 0.880121 0.181461
898 1 0.146635 0.831516 0.122227
933 1 0.235771 0.782311 0.229054
699 1 0.197829 0.945837 0.0181034
1919 1 0.191468 0.767363 0.0682012
641 1 0.225524 0.843919 0.14535
1385 1 0.217805 0.988576 0.156764
1209 1 0.0632239 0.927359 0.215228
1692 1 0.185123 0.778076 0.171563
1291 1 0.0490923 0.981171 0.05253
1972 1 0.188218 0.861375 0.0706406
1924 1 0.120394 0.76384 0.0865207
1891 1 0.0514429 0.916461 0.0915829
542 1 0.152398 0.82157 0.225616
1304 1 0.152465 0.795747 -0.000872789
1564 1 0.0815287 0.750908 0.00121836
1767 1 0.150802 0.948057 0.211663
416 1 -0.000532459 0.934809 0.0140514
395 1 0.088092 0.751227 0.227919
728 1 0.0506005 0.897423 0.284192
1293 1 0.0533429 0.757531 0.455201
759 1 0.213193 0.841572 0.268939
1772 1 0.0502351 0.946732 0.459294
232 1 0.134306 0.774992 0.286677
1128 1 0.230019 0.95634 0.400002
104 1 0.215608 0.879508 0.433593
145 1 0.231462 0.808935 0.356155
2022 1 0.110814 0.92688 0.338856
1067 1 0.158813 0.938076 0.431399
1572 1 0.199093 0.791246 0.456148
882 1 0.126123 0.889334 0.269953
501 1 0.0930958 0.83738 0.316391
1347 1 0.0119349 0.828176 0.459939
2032 1 0.0668768 0.982631 0.325476
392 1 0.197057 0.91552 0.340046
277 1 0.0878898 0.882185 0.400373
554 1 0.150588 0.798354 0.396473
639 1 0.0381226 0.787053 0.270854
108 1 0.16183 0.847053 0.340991
664 1 0.0153766 0.831435 0.345384
550 1 0.161083 0.979347 0.364729
1035 1 0.142732 0.854285 0.459672
1191 1 0.125487 0.999375 0.489334
1548 1 0.0310827 0.919326 0.358485
296 1 0.0741315 0.785605 0.373272
736 1 0.00714718 0.89417 0.426587
1835 1 0.0729597 0.995039 0.250901
773 1 0.146829 0.973837 0.289663
1624 1 0.0939052 0.967301 0.404763
880 1 0.221361 0.942604 0.27353
478 1 0.109198 0.797138 0.494006
1070 1 0.224313 0.844281 0.660177
1327 1 0.189133 0.862068 0.520487
1769 1 0.0331491 0.886884 0.708764
1003 1 0.0469607 0.854245 0.533229
144 1 0.0942147 0.91781 0.669821
633 1 0.100064 0.803478 0.574845
1387 1 0.0720645 0.958043 0.735563
934 1 0.240494 0.845832 0.584307
672 1 0.192764 0.769419 0.694739
636 1 0.1889 0.912544 0.657544
159 1 0.02085 0.796924 0.712405
244 1 0.0869868 0.912243 0.595988
1200 1 0.0151592 0.92763 0.523026
1336 1 0.137872 0.990462 0.586097
320 1 0.130447 0.9119 0.525656
718 1 0.147683 0.805645 0.638862
1316 1 0.0224687 0.935023 0.635193
2033 1 0.181958 0.786111 0.551264
472 1 0.0827684 0.849514 0.642059
94 1 0.245961 0.777439 0.622889
319 1 0.150766 0.844094 0.705891
863 1 0.187379 0.961765 0.51647
1585 1 0.21361 0.943271 0.588793
1032 1 0.0694682 0.974065 0.539955
848 1 0.086724 0.776317 0.672591
1860 1 0.157534 0.872337 0.593034
1755 1 0.241857 0.994495 0.679506
2000 1 0.247188 0.914805 0.503405
1932 1 0.150106 0.972645 0.699322
701 1 0.0918802 0.820528 0.747318
1093 1 0.0124402 0.857386 0.603918
1118 1 0.211449 0.878804 0.91264
30 1 0.154488 0.839257 0.80201
1148 1 0.136541 0.901232 0.914338
891 1 0.204814 0.979458 0.757511
1287 1 0.0952746 0.960334 0.81184
650 1 0.0512222 0.898756 0.933286
974 1 0.137053 0.913797 0.762733
469 1 0.108991 0.892875 0.840044
1998 1 0.100176 0.97216 0.886874
6 1 0.226224 0.811787 0.99234
504 1 0.215393 0.784392 0.772575
957 1 0.223118 0.867594 0.762299
1331 1 0.188225 0.913285 0.825583
943 1 0.180392 0.772998 0.856925
1613 1 0.10117 0.910653 1.00118
1677 1 0.0568955 0.827648 0.881818
316 1 0.040217 0.908008 0.792321
125 1 0.104295 0.789821 0.82856
1425 1 0.039597 0.98042 0.957847
1873 1 0.224148 0.805158 0.917578
458 1 0.100926 0.840232 0.95513
128 1 0.0101894 0.892107 0.865618
1746 1 0.171567 0.872971 0.990936
1640 1 0.141593 0.828997 0.889936
1511 1 0.146933 0.982195 0.957087
564 1 0.232489 0.972514 0.850969
505 1 0.0325226 0.791028 0.947355
1008 1 0.216101 0.841671 0.84445
74 1 0.0177226 0.788411 0.831653
609 1 0.145175 0.760964 0.759993
1965 1 0.219222 0.971622 0.940603
1538 1 0.0164222 0.971949 0.844666
1758 1 0.0986566 0.765526 0.911764
1959 1 0.360084 0.109255 0.211493
1114 1 0.273375 0.157528 0.186107
1211 1 0.434735 0.216399 0.0273222
1762 1 0.484306 0.0221793 0.246844
1549 1 0.323974 0.196335 0.234071
1756 1 0.383428 0.18157 0.0831684
584 1 0.356779 0.183172 0.166472
1928 1 0.351499 0.119077 0.119551
753 1 0.413906 0.0229585 0.0837984
936 1 0.26259 0.0755962 0.215157
311 1 0.36384 0.0788069 0.0372273
965 1 0.257332 0.233716 0.218748
109 1 0.441999 0.214566 0.137409
597 1 0.269801 0.14497 0.0904417
219 1 0.338726 0.23533 0.037936
1101 1 0.432938 0.0784726 0.206985
853 1 0.429033 0.153273 0.179488
1952 1 0.317047 0.220528 0.11521
870 1 0.454658 0.13942 0.0127424
1885 1 0.483984 0.105616 0.153573
408 1 0.305834 0.0435218 -0.00209402
1649 1 0.389106 0.0602452 0.144364
615 1 0.294588 0.0539477 0.0916759
1970 1 0.483356 0.159853 0.090578
44 1 0.272516 0.190725 0.0116426
1029 1 0.290627 0.113011 0.0254623
1075 1 0.31957 0.0431108 0.179727
386 1 0.376782 0.0347018 0.231067
65 1 0.425995 0.102112 0.0908189
1254 1 0.488416 0.19853 0.217342
1476 1 0.404787 0.15057 0.339577
432 1 0.426411 0.0435738 0.300928
1014 1 0.494369 0.244671 0.450754
308 1 0.265253 0.0434933 0.47386
90 1 0.398889 0.170212 0.253891
1864 1 0.363271 0.0916673 0.288453
1124 1 0.440141 0.236887 0.388126
180 1 0.361659 0.156528 0.485392
325 1 0.42739 0.0879708 0.387513
217 1 0.36937 0.229094 0.435949
1949 1 0.257283 0.158259 0.264751
1356 1 0.423651 0.117222 0.460473
766 1 0.496164 0.125606 0.491462
132 1 0.332152 0.168516 0.298816
121 1 0.289609 0.117796 0.425512
1600 1 0.420595 0.236902 0.487677
743 1 0.495246 0.10945 0.373959
29 1 0.463363 0.176806 0.424866
274 1 0.37348 0.146514 0.404994
1121 1 0.387647 0.0191081 0.402657
87 1 0.338369 0.0803472 0.381991
1270 1 0.302496 0.197222 0.461558
902 1 0.378836 0.231882 0.343332
616 1 0.284176 0.227756 0.307949
182 1 0.438814 0.231182 0.278504
702 1 0.269202 0.0164865 0.266457
1686 1 0.34211 0.0630519 0.45896
1212 1 0.348329 0.0211729 0.328184
586 1 0.309652 0.187917 0.373091
1895 1 0.470097 0.0262455 0.356746
627 1 0.286283 0.00793678 0.385102
1862 1 0.47683 0.180898 0.342593
1773 1 0.462057 0.1334 0.271907
1329 1 0.418429 0.0243974 0.477236
410 1 0.48771 0.0426312 0.443144
1027 1 0.273333 0.0843788 0.339085
763 1 0.273555 0.0706901 0.73499
1353 1 0.288145 0.221012 0.713236
474 1 0.459638 0.0580135 0.535689
34 1 0.36659 0.0254351 0.548697
409 1 0.322455 0.0211033 0.634676
1277 1 0.267115 0.153518 0.668174
1405 1 0.347054 0.11126 0.616926
1264 1 0.422651 0.158871 0.528322
1132 1 0.417417 0.136409 0.644364
338 1 0.338325 0.178109 0.656859
1262 1 0.281445 0.143751 0.589776
1804 1 0.467968 0.119227 0.583668
192 1 0.372923 0.18365 0.578571
803 1 0.454148 0.206115 0.625673
10 1 0.449338 0.180641 0.704552
1656 1 0.360051 0.179346 0.730879
626 1 0.467142 0.106576 0.727409
1849 1 0.470413 0.0154821 0.620188
2037 1 0.346693 0.0337265 0.723548
1655 1 0.396116 0.0829926 0.697981
1120 1 0.407416 0.0660001 0.599743
872 1 0.421287 0.0177821 0.742888
12 1 0.471733 0.037466 0.690695
643 1 0.482566 0.202532 0.519413
1705 1 0.297988 0.0673021 0.578009
1796 1 0.370838 0.102554 0.536747
1826 1 0.326123 0.114981 0.696768
947 1 0.275811 0.216267 0.624035
1504 1 0.292996 0.114893 0.509324
1328 1 0.305778 0.204233 0.545728
1110 1 0.262271 0.0738604 0.657512
1253 1 0.396862 0.0071702 0.646832
460 1 0.3535 0.242867 0.624922
1178 1 0.415734 0.146631 0.888314
1005 1 0.294899 0.0444072 0.855806
762 1 0.452748 0.064403 0.991337
1955 1 0.348101 0.10445 0.866869
1252 1 0.48964 0.00791446 0.763362
1557 1 0.41415 0.0104289 0.955462
1723 1 0.367686 0.183824 0.841002
1694 1 0.264957 0.121288 0.827915
187 1 0.2659 0.120014 0.907642
644 1 0.419676 0.0804907 0.786223
1215 1 0.321021 0.218354 0.790225
1589 1 0.484683 0.127291 0.931301
1068 1 0.301025 0.248804 0.971697
1795 1 0.420826 0.232898 0.848019
2010 1 0.360034 0.0230628 0.895045
530 1 0.368001 0.177736 0.997082
292 1 0.373413 0.0350111 0.81773
1828 1 0.426692 0.053914 0.882378
1748 1 0.495935 0.0466227 0.920498
26 1 0.382509 0.107187 0.964481
1458 1 0.453521 0.204026 0.944562
981 1 0.474918 0.102486 0.844364
1787 1 0.418867 0.16774 0.779422
651 1 0.319936 0.169837 0.933207
1451 1 0.300435 0.207907 0.861897
437 1 0.372715 0.223498 0.912954
304 1 0.470146 0.221222 0.772067
893 1 0.33895 0.118466 0.773035
1562 1 0.296615 0.0156683 0.78457
1529 1 0.277877 0.153317 0.748724
301 1 0.423172 0.259048 0.206706
1992 1 0.321231 0.381223 0.193394
1481 1 0.37901 0.316524 0.219923
740 1 0.436066 0.454783 0.0612363
457 1 0.454626 0.394895 0.111967
160 1 0.301003 0.444036 0.136083
363 1 0.367446 0.466773 0.224213
1536 1 0.395488 0.382062 0.162639
263 1 0.368038 0.396691 0.0183962
1462 1 0.352778 0.323235 0.146138
105 1 0.321537 0.379843 0.0910651
1359 1 0.444146 0.446475 0.210408
1318 1 0.448366 0.291427 0.120393
1940 1 0.464255 0.33896 0.176691
1082 1 0.485722 0.493151 0.00523609
775 1 0.270459 0.469583 0.210844
1422 1 0.385021 0.337912 0.0797306
1153 1 0.261355 0.424041 0.0574325
1853 1 0.343799 0.453789 0.0643347
1650 1 0.465708 0.465624 0.140569
1283 1 0.305594 0.30717 0.232843
754 1 0.279444 0.273786 0.0726162
470 1 0.277179 0.308241 0.138925
1880 1 0.442232 0.365898 0.0306696
559 1 0.386358 0.455509 0.133585
1043 1 0.383216 0.255374 0.0995075
932 1 0.25195 0.359336 0.228708
1473 1 0.497102 0.328182 0.0650379
1470 1 0.499517 0.392294 0.219303
490 1 0.345599 0.259982 0.188031
1789 1 0.350645 0.320754 0.0101327
249 1 0.252562 0.37626 0.121175
138 1 0.306091 0.464591 0.00245923
818 1 0.395876 0.496087 0.00417675
765 1 0.29471 0.405379 0.413359
202 1 0.420801 0.332667 0.30077
350 1 0.450579 0.415365 0.317511
1103 1 0.39066 0.321058 0.379405
1960 1 0.429226 0.40457 0.390612
1455 1 0.306291 0.311539 0.427413
238 1 0.486472 0.355435 0.363436
1541 1 0.376681 0.388319 0.336241
697 1 0.387578 0.29787 0.456832
1579 1 0.397088 0.390019 0.251747
503 1 0.33805 0.33561 0.292185
1554 1 0.260964 0.440842 0.309965
75 1 0.334887 0.466377 0.393896
1505 1 0.429929 0.489536 0.29837
278 1 0.316234 0.409368 0.269757
253 1 0.296616 0.487246 0.472966
194 1 0.307382 0.352848 0.363219
1542 1 0.354052 0.459592 0.307791
52 1 0.443033 0.323603 0.503131
1142 1 0.457836 0.30486 0.422972
1420 1 0.368721 0.370642 0.452151
1189 1 0.25255 0.356171 0.31038
24 1 0.314276 0.2774 0.35596
1028 1 0.252444 0.471681 0.391423
1379 1 0.462929 0.450143 0.449384
445 1 0.474039 0.278717 0.326741
1574 1 0.480725 0.316141 0.253897
1943 1 0.368664 0.459664 0.468616
916 1 0.497388 0.365797 0.45168
938 1 0.366228 0.259159 0.271788
1502 1 0.486204 0.487161 0.365291
2041 1 0.306151 0.395137 0.494288
1575 1 0.319195 0.294704 0.503382
331 1 0.445043 0.375634 0.745203
1156 1 0.277381 0.280765 0.569544
673 1 0.330033 0.305349 0.735692
1112 1 0.339484 0.438319 0.699025
1759 1 0.456101 0.305381 0.726621
1098 1 0.364139 0.394825 0.638818
890 1 0.261072 0.493691 0.646691
1459 1 0.39086 0.473482 0.628318
847 1 0.366575 0.354538 0.529518
66 1 0.450412 0.352959 0.655451
1341 1 0.392193 0.33416 0.698116
516 1 0.396071 0.339253 0.600784
1678 1 0.424164 0.429961 0.691028
1208 1 0.395775 0.418234 0.570474
261 1 0.45899 0.273678 0.557871
1497 1 0.247346 0.386657 0.54369
231 1 0.295315 0.428022 0.626634
1658 1 0.392832 0.252716 0.703715
242 1 0.470395 0.352673 0.583459
1495 1 0.468467 0.487264 0.655727
441 1 0.282096 0.380281 0.704085
601 1 0.376369 0.492972 0.549699
396 1 0.456796 0.465976 0.549894
696 1 0.313213 0.36056 0.592058
2034 1 0.310682 0.295892 0.661815
1440 1 0.313934 0.45271 0.555288
315 1 0.256361 0.446073 0.739196
1081 1 0.37366 0.260211 0.545145
1116 1 0.458461 0.278816 0.649023
778 1 0.433192 0.410021 0.504638
43 1 0.310647 0.269009 0.902877
352 1 0.372099 0.362801 0.762694
1267 1 0.3163 0.378436 0.953109
1218 1 0.336148 0.365045 0.832394
1508 1 0.267013 0.277965 0.774666
1089 1 0.413779 0.490475 0.923944
1297 1 0.2683 0.461282 0.922099
1847 1 0.379361 0.420698 0.938229
488 1 0.260199 0.324579 0.968263
1518 1 0.394877 0.305127 0.819578
816 1 0.460248 0.484496 0.863016
208 1 0.313169 0.41136 0.88423
1045 1 0.43402 0.283677 0.905599
464 1 0.255079 0.373755 0.777169
1900 1 0.39064 0.255572 0.981489
1452 1 0.458187 0.296594 0.978754
598 1 0.376669 0.450891 0.871008
1104 1 0.487994 0.373531 0.970502
80 1 0.293762 0.436411 0.804017
1417 1 0.41434 0.359002 0.949408
1546 1 0.363327 0.337609 0.895657
216 1 0.267588 0.349306 0.877824
820 1 0.441198 0.358001 0.87158
1693 1 0.321522 0.290429 0.82568
1339 1 0.471651 0.450888 0.785223
1904 1 0.443132 0.43148 0.988715
1530 1 0.454761 0.420783 0.912383
570 1 0.417463 0.400528 0.81423
563 1 0.366473 0.463541 0.77431
1171 1 0.490918 0.381614 0.818848
1623 1 0.34354 0.725624 0.0689979
1809 1 0.427066 0.590145 0.132295
527 1 0.261466 0.709346 0.205321
124 1 0.465685 0.650575 0.00668644
273 1 0.267752 0.567397 0.0630029
1700 1 0.429817 0.520041 0.173934
569 1 0.472843 0.632047 0.0872488
1753 1 0.431623 0.729481 0.116789
1774 1 0.357513 0.739324 0.148041
51 1 0.400884 0.522188 0.0909071
468 1 0.290771 0.560676 0.217858
1312 1 0.467764 0.717242 0.0518228
1871 1 0.491468 0.691194 0.239898
556 1 0.304657 0.639977 0.0594966
1096 1 0.352459 0.664671 0.121975
191 1 0.430933 0.65801 0.180564
1712 1 0.489492 0.731013 0.17272
757 1 0.299725 0.583624 0.13022
561 1 0.489978 0.507491 0.215706
1824 1 0.424372 0.585728 0.0372078
39 1 0.404737 0.670792 0.0585348
566 1 0.364639 0.596562 0.0850788
1102 1 0.319358 0.509626 0.17306
1244 1 0.363322 0.572651 0.176108
1684 1 0.284858 0.702497 0.13199
899 1 0.382403 0.621638 0.241698
536 1 0.35724 0.687139 0.204042
1971 1 0.29695 0.633239 0.210131
1629 1 0.477052 0.554889 0.0823356
297 1 0.329628 0.527029 0.0457682
677 1 0.260229 0.729089 0.064147
631 1 0.485449 0.617022 0.231097
1127 1 0.413749 0.746674 0.203133
533 1 0.249483 0.671394 0.0062276
1447 1 0.401924 0.723443 0.0132878
1642 1 0.351086 0.622017 0.471625
1194 1 0.296709 0.723963 0.370313
991 1 0.286899 0.721058 0.27452
1618 1 0.421468 0.51904 0.492546
239 1 0.265007 0.668477 0.437589
1535 1 0.368278 0.522445 0.355487
841 1 0.357392 0.547842 0.446331
374 1 0.478903 0.567451 0.397582
1154 1 0.392406 0.599043 0.397132
434 1 0.408777 0.621553 0.320105
922 1 0.435253 0.696552 0.453036
1653 1 0.349966 0.531548 0.266076
77 1 0.383086 0.705106 0.346443
1903 1 0.340163 0.647073 0.372438
873 1 0.286802 0.512312 0.334321
1181 1 0.434332 0.692153 0.292971
1149 1 0.357623 0.702605 0.429716
1392 1 0.31538 0.696913 0.502599
595 1 0.453975 0.554027 0.329295
1577 1 0.260556 0.589152 0.325139
1517 1 0.342531 0.58244 0.325907
1017 1 0.349184 0.673348 0.288789
520 1 0.439415 0.604388 0.462144
2019 1 0.494697 0.726635 0.491057
135 1 0.425834 0.508912 0.4137
4 1 0.254505 0.600943 0.491662
605 1 0.295953 0.599965 0.418234
941 1 0.451041 0.666684 0.366803
1041 1 0.256569 0.663188 0.340835
1320 1 0.367859 0.742672 0.269658
1446 1 0.421166 0.558925 0.254787
603 1 0.376358 0.598099 0.602535
126 1 0.400889 0.59099 0.53137
963 1 0.305335 0.747052 0.660336
1483 1 0.363444 0.739601 0.602345
1030 1 0.48242 0.506822 0.73682
1206 1 0.402887 0.526097 0.691821
1978 1 0.283771 0.535876 0.571403
1223 1 0.397712 0.60004 0.730786
234 1 0.456567 0.619003 0.578689
1307 1 0.44058 0.673909 0.526957
1372 1 0.315039 0.564598 0.50979
668 1 0.438405 0.689399 0.608754
1877 1 0.365211 0.662362 0.554612
1780 1 0.473766 0.565636 0.672255
1968 1 0.417194 0.633075 0.659376
1160 1 0.389979 0.732569 0.516036
1152 1 0.471288 0.612091 0.746335
774 1 0.339937 0.582912 0.679991
1838 1 0.397118 0.730405 0.680784
1990 1 0.303005 0.708163 0.576021
788 1 0.281107 0.641898 0.681146
1332 1 0.334697 0.661775 0.628831
1843 1 0.433284 0.542217 0.59467
200 1 0.275788 0.578639 0.638968
1969 1 0.357856 0.659482 0.704943
892 1 0.329061 0.520398 0.636637
329 1 0.450617 0.677923 0.710382
1906 1 0.295904 0.615096 0.561061
1091 1 0.472605 0.555877 0.532294
1020 1 0.302272 0.509625 0.711252
1433 1 0.434 0.582619 0.963293
1050 1 0.489585 0.749792 0.888712
1107 1 0.337263 0.509824 0.945438
1967 1 0.25823 0.740577 0.933579
555 1 0.352403 0.712079 0.828552
1644 1 0.395347 0.511516 0.830771
473 1 0.264428 0.606317 0.822499
661 1 0.331028 0.709919 0.911137
884 1 0.359727 0.540226 0.769523
980 1 0.414159 0.584805 0.801911
341 1 0.321545 0.518771 0.862557
375 1 0.457505 0.597626 0.867992
717 1 0.385869 0.567915 0.880989
1781 1 0.388119 0.642873 0.847198
1034 1 0.292544 0.513283 0.789851
1013 1 0.421821 0.666249 0.786176
360 1 0.42643 0.724684 0.84862
791 1 0.359 0.631865 0.925992