ITEM: TIMESTEP
100000
ITEM: NUMBER OF ATOMS
2048
ITEM: BOX BOUNDS pp pp pp
0.0000000000000000e+00 1.1635780856594225e+01
0.0000000000000000e+00 1.1635780856594225e+01
0.0000000000000000e+00 1.1635780856594225e+01
ITEM: ATOMS id type xs ys zs
1 1 0.00533536 0.00401035 0.00282378
5 1 0.123145 0.00440032 0.00278625
8 1 0.127236 0.0617362 0.0612815
2 1 0.0650886 0.0649045 0.00542
516 1 0.247548 0.0693494 0.0580405
10 1 0.0515513 0.18495 0.002399
13 1 0.122318 0.129507 0.00105651
14 1 0.188829 0.182093 0.00455498
133 1 0.119005 0.245658 0.00689198
135 1 0.185694 0.249183 0.0596003
7 1 0.189879 0.00566315 0.0630687
529 1 0.246542 0.00651624 0.122455
11 1 0.0616921 0.119139 0.0702989
15 1 0.182871 0.124623 0.0637194
22 1 0.192118 0.0647247 0.12178
12 1 0.00153803 0.178697 0.0700258
131 1 0.056159 0.242535 0.0678179
16 1 0.123876 0.187559 0.0636368
524 1 0.24781 0.187859 0.0645455
18 1 0.0656847 0.0570954 0.128689
29 1 0.127812 0.115459 0.128456
31 1 0.190965 0.120812 0.182771
26 1 0.0632126 0.181802 0.128935
149 1 0.124684 0.245974 0.134584
30 1 0.18806 0.19086 0.12694
34 1 0.0611508 0.0592634 0.24573
24 1 0.126578 0.0559805 0.190833
27 1 0.0628366 0.125628 0.188704
32 1 0.12961 0.18106 0.188994
42 1 0.0606399 0.188926 0.247203
147 1 0.0574823 0.249432 0.188259
151 1 0.189022 0.246771 0.18753
40 1 0.124102 0.0623424 0.310111
37 1 0.124739 0.000540874 0.251719
38 1 0.191594 0.0596942 0.252272
43 1 0.0616769 0.120257 0.305877
36 1 0.00225832 0.0640538 0.310955
548 1 0.248155 0.067506 0.312253
44 1 0.00758175 0.185567 0.308214
45 1 0.122914 0.132905 0.253324
48 1 0.125818 0.194437 0.309994
46 1 0.190529 0.190299 0.254521
167 1 0.195039 0.246686 0.30815
50 1 0.057366 0.0597912 0.371669
53 1 0.12111 0.0057006 0.374434
39 1 0.191349 0.000810375 0.320984
47 1 0.186094 0.124736 0.314355
54 1 0.182812 0.0731336 0.371912
62 1 0.187127 0.19421 0.373604
52 1 0.00364935 0.0578645 0.435634
61 1 0.125626 0.131513 0.381909
569 1 0.247849 0.125795 0.37996
58 1 0.0692544 0.1902 0.377778
181 1 0.127898 0.249509 0.376199
66 1 0.0659196 0.0592328 0.499421
69 1 0.122667 0.000709575 0.499104
55 1 0.196234 0.00548301 0.44244
59 1 0.0616129 0.119803 0.441121
56 1 0.124904 0.0685587 0.43952
63 1 0.184051 0.123403 0.441087
77 1 0.127226 0.127917 0.497434
193 1 0.00817054 0.249348 0.494585
74 1 0.0675575 0.191746 0.498272
64 1 0.129236 0.190365 0.442217
572 1 0.244858 0.190694 0.439374
78 1 0.193429 0.189853 0.497054
68 1 0.00124644 0.0592465 0.559401
75 1 0.0716031 0.117629 0.559934
79 1 0.18385 0.121172 0.561954
70 1 0.191028 0.0651135 0.500072
73 1 0.00274546 0.126592 0.502991
76 1 0.00840089 0.190245 0.554361
81 1 0.00162302 0.00517039 0.622773
67 1 0.0706377 0.000690004 0.564209
85 1 0.131443 0.00198333 0.622227
72 1 0.134256 0.0568896 0.563466
71 1 0.199014 0.0077164 0.564201
93 1 0.12528 0.123966 0.622343
86 1 0.192831 0.066693 0.621883
89 1 0.00497665 0.12712 0.614117
80 1 0.119358 0.185669 0.562634
84 1 0.00413706 0.061119 0.684946
82 1 0.0698092 0.0589181 0.626413
88 1 0.12904 0.0622929 0.681512
92 1 0.00362589 0.185425 0.684957
90 1 0.0717962 0.181311 0.633575
95 1 0.197007 0.127669 0.680691
209 1 0.012556 0.245985 0.629395
213 1 0.124699 0.248551 0.634867
94 1 0.200782 0.188238 0.626154
97 1 2.5827e-05 0.00962881 0.74939
83 1 0.0636916 0.002268 0.689312
101 1 0.126851 0.00327369 0.743326
87 1 0.195679 0.00169195 0.689129
105 1 0.00307989 0.120527 0.746827
91 1 0.0680965 0.122021 0.69164
102 1 0.187911 0.0650045 0.747941
106 1 0.064161 0.178496 0.749903
211 1 0.0710456 0.249367 0.698481
96 1 0.133345 0.189335 0.692896
98 1 0.0649716 0.0593887 0.754196
104 1 0.126734 0.0583144 0.811068
109 1 0.125125 0.120546 0.755356
110 1 0.192361 0.18046 0.759907
229 1 0.134028 0.246138 0.751158
99 1 0.0645376 0.0019643 0.813995
103 1 0.192111 0.00810092 0.814639
107 1 0.0654731 0.120107 0.814971
122 1 0.0594214 0.186074 0.866585
111 1 0.178461 0.129575 0.819478
112 1 0.123898 0.195558 0.813221
231 1 0.194203 0.238583 0.821807
116 1 0.000462409 0.0621573 0.93314
114 1 0.0616847 0.0572499 0.878704
117 1 0.121113 0.000501044 0.879125
625 1 0.245858 0.00424777 0.883004
125 1 0.117422 0.123857 0.879023
118 1 0.182665 0.0626466 0.875053
127 1 0.183784 0.122921 0.936646
124 1 0.00266836 0.182767 0.929163
126 1 0.185758 0.185107 0.882366
245 1 0.122343 0.243304 0.877742
115 1 0.0555443 0.00083521 0.939009
123 1 0.0588864 0.117285 0.939514
120 1 0.121515 0.0633836 0.941282
6 1 0.193312 0.0670204 0.997969
636 1 0.24815 0.183363 0.938978
521 1 0.249541 0.126735 0.999815
128 1 0.10805 0.190567 0.940958
247 1 0.180466 0.241087 0.944005
130 1 0.0496605 0.30894 0.00599036
136 1 0.125058 0.306877 0.0620658
641 1 0.245998 0.250605 0.00280488
141 1 0.131436 0.370503 0.00431345
144 1 0.118041 0.429826 0.055333
142 1 0.190773 0.434377 0.000786999
259 1 0.0585338 0.495498 0.0566802
263 1 0.189644 0.499058 0.0620266
146 1 0.0555525 0.309026 0.122862
644 1 0.246524 0.311161 0.06425
153 1 0.0012154 0.373445 0.117278
139 1 0.0639665 0.367517 0.0642701
143 1 0.184307 0.37578 0.0699925
652 1 0.242774 0.433406 0.0638661
277 1 0.124108 0.499374 0.121775
657 1 0.242499 0.25203 0.12727
660 1 0.249645 0.311848 0.187154
148 1 0.000381406 0.314858 0.18196
152 1 0.124919 0.314707 0.180265
150 1 0.191534 0.320353 0.128609
157 1 0.119754 0.379074 0.127059
154 1 0.0587031 0.438256 0.12511
160 1 0.122892 0.440336 0.18172
785 1 0.244696 0.499992 0.125605
158 1 0.187573 0.43964 0.126651
165 1 0.123315 0.251381 0.243754
162 1 0.0609627 0.319226 0.245219
159 1 0.191487 0.371061 0.194177
155 1 0.0583399 0.376632 0.189306
170 1 0.0533002 0.437568 0.245547
279 1 0.18538 0.497499 0.1879
293 1 0.126529 0.491718 0.24735
163 1 0.0709712 0.253551 0.307794
166 1 0.193196 0.307094 0.253541
171 1 0.0590752 0.372199 0.30913
164 1 0.00427403 0.314122 0.308574
681 1 0.245128 0.372833 0.258264
173 1 0.126562 0.38287 0.250028
174 1 0.190503 0.436171 0.250697
291 1 0.0681851 0.49355 0.31033
177 1 0.00211585 0.253914 0.363255
178 1 0.0631984 0.309794 0.373499
168 1 0.129177 0.312455 0.313477
182 1 0.196801 0.306166 0.374739
189 1 0.121075 0.366527 0.370242
175 1 0.188547 0.372245 0.319094
186 1 0.0626344 0.429843 0.371149
190 1 0.195506 0.437213 0.37345
172 1 0.00363782 0.438306 0.313677
176 1 0.13242 0.440616 0.312555
183 1 0.195767 0.255125 0.434903
187 1 0.0610307 0.364328 0.437481
191 1 0.187811 0.376512 0.435793
305 1 0.00178942 0.493269 0.375709
309 1 0.127058 0.496712 0.382225
179 1 0.0671392 0.250015 0.437512
184 1 0.131495 0.309887 0.437842
201 1 0.00513787 0.371948 0.497465
202 1 0.064336 0.426446 0.499182
192 1 0.121117 0.428783 0.438367
307 1 0.0588022 0.494831 0.443278
325 1 0.126947 0.48689 0.495494
311 1 0.197929 0.494038 0.441497
194 1 0.0667211 0.31173 0.500383
195 1 0.0644243 0.253254 0.559445
197 1 0.13338 0.254932 0.504001
205 1 0.124833 0.369857 0.501384
198 1 0.19056 0.315011 0.505869
206 1 0.195519 0.42894 0.50857
204 1 0.00564483 0.4477 0.560337
196 1 0.00872026 0.310216 0.564033
200 1 0.124154 0.311702 0.568042
199 1 0.195589 0.250701 0.569588
207 1 0.191539 0.371458 0.566348
214 1 0.191689 0.313962 0.623643
203 1 0.0603386 0.377461 0.570822
208 1 0.122506 0.438561 0.569326
222 1 0.188435 0.437698 0.620192
210 1 0.0620144 0.318371 0.630777
216 1 0.127594 0.313472 0.682321
217 1 0.000148246 0.376841 0.629058
221 1 0.122722 0.384042 0.62502
223 1 0.189212 0.381869 0.681035
218 1 0.0614319 0.440724 0.626039
337 1 0.00219427 0.498231 0.635902
341 1 0.118852 0.497654 0.626424
224 1 0.132513 0.439354 0.68476
215 1 0.188163 0.255388 0.688837
212 1 0.000607898 0.315227 0.687783
233 1 0.00620293 0.371022 0.749357
226 1 0.0698853 0.31758 0.748702
724 1 0.248558 0.316958 0.688929
219 1 0.0684073 0.38476 0.688549
237 1 0.12168 0.379484 0.748733
238 1 0.18667 0.435951 0.745899
745 1 0.248822 0.380099 0.74558
339 1 0.0606018 0.494477 0.695133
357 1 0.128635 0.497982 0.744455
225 1 0.000301503 0.25407 0.751127
227 1 0.063983 0.256635 0.809099
737 1 0.249932 0.253706 0.755779
239 1 0.181822 0.374591 0.805446
230 1 0.184472 0.312793 0.755289
234 1 0.0538641 0.435671 0.753158
748 1 0.240618 0.434364 0.809694
240 1 0.122662 0.43838 0.810762
359 1 0.190018 0.499005 0.808896
241 1 0.000269489 0.251936 0.869601
242 1 0.059826 0.31031 0.874227
232 1 0.128393 0.312472 0.81636
740 1 0.244627 0.309329 0.81882
235 1 0.0652229 0.377522 0.814401
355 1 0.0647105 0.497885 0.813529
254 1 0.183861 0.438809 0.873857
881 1 0.24745 0.497165 0.869062
246 1 0.185618 0.300156 0.877905
248 1 0.129696 0.303039 0.936381
761 1 0.239364 0.3718 0.878578
250 1 0.0609541 0.436747 0.878688
249 1 0.00755107 0.377787 0.879618
253 1 0.122857 0.378847 0.877573
369 1 0.00509485 0.498905 0.878948
373 1 0.125686 0.498891 0.878854
764 1 0.246636 0.439093 0.934949
375 1 0.190217 0.499987 0.935867
243 1 0.0566781 0.253618 0.938554
756 1 0.243525 0.309388 0.938153
134 1 0.189118 0.30941 0.999802
244 1 0.0053436 0.315065 0.937719
251 1 0.0722167 0.362532 0.945457
649 1 0.247091 0.370975 0.993964
137 1 0.00133455 0.375492 0.997683
138 1 0.0629212 0.432063 0.99336
256 1 0.127288 0.436045 0.938891
255 1 0.183531 0.376499 0.937583
371 1 0.056928 0.497322 0.946007
261 1 0.127907 0.495188 0.999366
264 1 0.123577 0.552551 0.0570191
262 1 0.187369 0.555009 0.00645499
267 1 0.0637105 0.621202 0.0594762
269 1 0.12403 0.617009 0.00438608
777 1 0.246294 0.625469 0.00556666
266 1 0.0565391 0.690439 0.000298879
389 1 0.12209 0.744224 0.0110056
897 1 0.247471 0.74471 0.0117109
274 1 0.060046 0.552879 0.117358
278 1 0.187213 0.562374 0.11958
285 1 0.117571 0.61827 0.120927
793 1 0.247412 0.621305 0.11797
281 1 0.0048838 0.628316 0.118513
272 1 0.115883 0.682377 0.0640941
271 1 0.185191 0.635126 0.0641155
282 1 0.0631926 0.692083 0.123761
275 1 0.0628244 0.500196 0.184583
280 1 0.129157 0.558451 0.17721
283 1 0.0601015 0.624052 0.185709
287 1 0.18655 0.623773 0.177254
288 1 0.118396 0.68121 0.187473
405 1 0.12338 0.747483 0.130277
286 1 0.182255 0.694422 0.127174
289 1 0.00151318 0.503105 0.244255
294 1 0.186228 0.557142 0.247708
788 1 0.244418 0.561936 0.191011
801 1 0.248876 0.501153 0.248378
298 1 0.0562741 0.684384 0.245625
796 1 0.244646 0.686167 0.18958
403 1 0.0623866 0.749604 0.187861
302 1 0.178864 0.69039 0.24453
292 1 0.0107915 0.554274 0.304748
290 1 0.0713186 0.554063 0.250353
297 1 0.00253816 0.621186 0.253259
299 1 0.0607605 0.617616 0.311602
301 1 0.122789 0.622371 0.250163
296 1 0.127767 0.567417 0.312444
809 1 0.236472 0.624931 0.250906
304 1 0.11865 0.685737 0.30619
303 1 0.182978 0.629812 0.310079
419 1 0.0580001 0.74453 0.304702
423 1 0.17459 0.744977 0.311033
929 1 0.234697 0.74628 0.254057
306 1 0.0654271 0.559776 0.373266
295 1 0.185322 0.50573 0.317076
313 1 0.00455977 0.618211 0.374804
300 1 0.000913703 0.681156 0.313039
317 1 0.121276 0.625656 0.374052
437 1 0.12056 0.74999 0.372714
310 1 0.190779 0.556518 0.378864
319 1 0.190413 0.61815 0.430893
314 1 0.0638525 0.687498 0.382361
318 1 0.189534 0.68358 0.379961
322 1 0.0617853 0.557931 0.497641
326 1 0.186334 0.558564 0.495628
312 1 0.126319 0.558406 0.438021
315 1 0.0641271 0.620495 0.438157
333 1 0.131044 0.61893 0.495309
330 1 0.0621965 0.682023 0.494705
320 1 0.127788 0.684588 0.439404
841 1 0.24976 0.628601 0.49611
334 1 0.194655 0.69364 0.495676
323 1 0.0655929 0.500874 0.560656
833 1 0.244943 0.500749 0.507318
332 1 0.00483093 0.68194 0.558039
331 1 0.0679541 0.626281 0.562012
336 1 0.127759 0.678491 0.554472
451 1 0.0658855 0.748645 0.560851
453 1 0.127029 0.744997 0.502748
455 1 0.197498 0.749126 0.561098
338 1 0.0636945 0.561511 0.623578
327 1 0.183713 0.501138 0.565895
328 1 0.129317 0.56097 0.564294
342 1 0.184879 0.562402 0.623412
335 1 0.188772 0.622125 0.566983
836 1 0.247304 0.567729 0.565207
349 1 0.126811 0.630082 0.620233
350 1 0.191187 0.68437 0.61662
469 1 0.129919 0.738697 0.621849
344 1 0.122131 0.557473 0.684471
343 1 0.190375 0.504287 0.684633
347 1 0.065988 0.624808 0.680419
351 1 0.188834 0.625915 0.677822
346 1 0.0625558 0.68949 0.629499
340 1 0.00877482 0.563234 0.690384
365 1 0.120488 0.613636 0.742181
358 1 0.180779 0.562519 0.745428
352 1 0.122501 0.685178 0.694029
348 1 0.00579387 0.688252 0.69574
360 1 0.121326 0.559156 0.806026
354 1 0.0635308 0.554372 0.755022
361 1 0.0108997 0.617994 0.756493
367 1 0.183398 0.621621 0.8087
873 1 0.248749 0.628057 0.753016
481 1 0.00414786 0.746005 0.753166
362 1 0.0658486 0.691298 0.76117
485 1 0.121593 0.746799 0.753793
366 1 0.18699 0.694157 0.751971
374 1 0.187025 0.560346 0.868988
363 1 0.0579321 0.620259 0.822541
381 1 0.127431 0.621227 0.873624
364 1 0.00639879 0.686778 0.820917
368 1 0.121676 0.684797 0.823406
876 1 0.24569 0.696087 0.81833
370 1 0.0639558 0.558188 0.889951
884 1 0.248831 0.558979 0.928727
376 1 0.131969 0.563907 0.936898
383 1 0.195321 0.625261 0.93554
378 1 0.0633509 0.691787 0.888138
382 1 0.185429 0.689346 0.879634
258 1 0.0613201 0.562721 0.999132
379 1 0.0524974 0.6251 0.939589
384 1 0.120382 0.685363 0.941299
270 1 0.190756 0.685154 0.998833
380 1 0.000321629 0.695671 0.942649
390 1 0.183976 0.811497 0.00182563
900 1 0.245978 0.812089 0.0620564
386 1 0.0553353 0.818532 0.00788524
397 1 0.115128 0.87136 0.00217387
399 1 0.187055 0.873605 0.0594616
908 1 0.242215 0.935868 0.0590606
3 1 0.0634075 0.991503 0.06179
400 1 0.130563 0.937897 0.0517079
401 1 0.00279962 0.750743 0.119818
387 1 0.065132 0.759841 0.0692973
391 1 0.186697 0.752756 0.0714453
392 1 0.127112 0.812526 0.082392
395 1 0.0637669 0.875431 0.0713272
413 1 0.129265 0.885502 0.122349
921 1 0.24761 0.881968 0.119107
21 1 0.121359 0.995367 0.123924
913 1 0.244157 0.751811 0.133176
402 1 0.0567087 0.815445 0.13335
408 1 0.131302 0.817752 0.182745
406 1 0.190689 0.82494 0.125807
410 1 0.0608697 0.936432 0.129589
414 1 0.187594 0.941623 0.126181
421 1 0.119737 0.750169 0.246959
407 1 0.178845 0.7511 0.18975
418 1 0.0632648 0.813145 0.249831
916 1 0.238762 0.813383 0.203028
411 1 0.0602834 0.875559 0.190904
425 1 0.000589254 0.878588 0.248944
429 1 0.122954 0.876376 0.248902
415 1 0.184283 0.883865 0.187947
19 1 0.0621497 0.997221 0.191616
416 1 0.124598 0.943244 0.191767
23 1 0.190243 0.994848 0.19875
422 1 0.177308 0.809952 0.258728
426 1 0.065844 0.935915 0.255772
430 1 0.183865 0.934125 0.259394
35 1 0.0631145 0.998933 0.311483
424 1 0.121722 0.818156 0.316289
932 1 0.245781 0.826132 0.313109
427 1 0.0549301 0.879395 0.317028
431 1 0.185411 0.882059 0.316853
49 1 0.00159645 0.995121 0.374033
432 1 0.127092 0.940931 0.319939
940 1 0.249194 0.939141 0.316122
433 1 0.0086071 0.754253 0.375302
435 1 0.0685844 0.754643 0.436429
438 1 0.187169 0.804969 0.375085
439 1 0.194176 0.751926 0.43695
434 1 0.0634846 0.818061 0.376787
445 1 0.125953 0.869148 0.379319
447 1 0.185192 0.874396 0.437327
441 1 0.00136039 0.878702 0.382316
442 1 0.0675024 0.934497 0.379269
953 1 0.243917 0.879019 0.37825
51 1 0.0643594 0.991612 0.437499
446 1 0.189162 0.942685 0.379386
449 1 0.00915054 0.752085 0.499609
440 1 0.130673 0.807922 0.442571
436 1 0.0039474 0.820751 0.441891
450 1 0.0685917 0.812928 0.499182
444 1 0.00417156 0.93284 0.442435
443 1 0.0766821 0.882477 0.450395
65 1 0.00425653 0.996588 0.496019
448 1 0.131046 0.943407 0.441324
956 1 0.247243 0.939026 0.443183
452 1 0.00490398 0.807671 0.55883
454 1 0.188691 0.811717 0.500414
459 1 0.0699245 0.873188 0.556437
457 1 0.00686679 0.880003 0.505238
461 1 0.139391 0.881097 0.508952
969 1 0.236724 0.876263 0.505081
458 1 0.0655024 0.940152 0.505491
462 1 0.19525 0.949442 0.503512
456 1 0.134778 0.80277 0.565215
466 1 0.0634745 0.815382 0.621291
463 1 0.187239 0.870182 0.574861
460 1 0.00691214 0.934746 0.567208
477 1 0.122601 0.877677 0.619888
972 1 0.243595 0.93186 0.568995
464 1 0.135981 0.944991 0.56383
470 1 0.194909 0.804689 0.625309
472 1 0.122987 0.817558 0.684205
479 1 0.19202 0.871503 0.683218
473 1 0.00203777 0.882175 0.63197
475 1 0.0636133 0.880917 0.686498
476 1 0.00297997 0.945336 0.685139
474 1 0.0658375 0.944581 0.625004
478 1 0.189138 0.944651 0.631139
467 1 0.0627643 0.754587 0.693104
471 1 0.183883 0.750778 0.690061
468 1 0.00788019 0.81427 0.687844
489 1 0.00178347 0.873233 0.748516
486 1 0.183571 0.816366 0.743544
480 1 0.129577 0.930688 0.693016
494 1 0.196172 0.934743 0.745929
484 1 0.00221131 0.806596 0.811953
993 1 0.249029 0.75079 0.753584
482 1 0.0649791 0.8149 0.759093
493 1 0.121159 0.868179 0.75572
495 1 0.185308 0.874981 0.812463
492 1 0.00699836 0.945035 0.809277
490 1 0.0737411 0.938388 0.755127
496 1 0.132159 0.946039 0.80876
483 1 0.0659198 0.752048 0.819887
487 1 0.181202 0.75741 0.812772
491 1 0.0614191 0.870389 0.817234
488 1 0.121334 0.814731 0.823738
996 1 0.247504 0.812606 0.813214
509 1 0.122556 0.881482 0.873949
1017 1 0.248052 0.877141 0.871101
506 1 0.0599694 0.939764 0.870084
510 1 0.192632 0.939566 0.873724
498 1 0.0537231 0.810597 0.886668
501 1 0.130465 0.752611 0.87851
503 1 0.188898 0.752843 0.937112
1009 1 0.245883 0.75658 0.880731
502 1 0.185003 0.816918 0.880727
504 1 0.12559 0.815748 0.934243
508 1 0.00522121 0.937257 0.930796
113 1 0.00213095 0.999226 0.876634
499 1 0.0670933 0.753925 0.943949
507 1 0.0630837 0.87394 0.938873
1012 1 0.246637 0.815955 0.938053
393 1 0.00151609 0.881958 0.992956
512 1 0.122991 0.936165 0.938227
394 1 0.0636846 0.935422 0.999789
511 1 0.179011 0.878362 0.943094
398 1 0.19255 0.93424 0.999074
119 1 0.186814 0.998844 0.944095
513 1 0.250305 0.00604799 0.0016066
514 1 0.313781 0.0600637 0.00388393
519 1 0.431171 0.00373531 0.0560286
1028 1 0.490589 0.062972 0.0598504
523 1 0.312726 0.13476 0.0606534
527 1 0.436989 0.128828 0.0614271
528 1 0.367868 0.195088 0.0560198
526 1 0.437696 0.198846 0.00547497
533 1 0.37774 0.00172932 0.118742
1041 1 0.495417 0.00362103 0.1179
537 1 0.25287 0.123075 0.121707
520 1 0.367686 0.0667553 0.0636881
534 1 0.430422 0.0681629 0.119875
541 1 0.369367 0.138079 0.11804
538 1 0.30796 0.19145 0.122949
643 1 0.302008 0.247546 0.065811
661 1 0.374078 0.246852 0.122032
535 1 0.433221 0.00140886 0.180734
530 1 0.30844 0.0646903 0.130115
539 1 0.308312 0.12672 0.186728
540 1 0.251825 0.188868 0.186535
542 1 0.437608 0.193254 0.128559
531 1 0.307874 0.000604513 0.192275
532 1 0.251072 0.0617917 0.193884
549 1 0.366096 0.00224411 0.247297
550 1 0.434769 0.0610833 0.249823
536 1 0.372655 0.0741733 0.189865
543 1 0.444122 0.136914 0.193479
544 1 0.371131 0.195361 0.19125
545 1 0.251827 0.00385652 0.254979
546 1 0.309836 0.0664748 0.251821
559 1 0.435221 0.12334 0.31056
552 1 0.377674 0.0646514 0.310665
554 1 0.309075 0.181771 0.252537
553 1 0.251775 0.128116 0.25447
557 1 0.374966 0.130036 0.252772
558 1 0.438334 0.196022 0.253371
562 1 0.318965 0.0572333 0.374991
555 1 0.304578 0.124793 0.317115
556 1 0.251953 0.186686 0.315332
573 1 0.380392 0.127751 0.370812
574 1 0.444832 0.187139 0.369058
689 1 0.257417 0.245671 0.371267
560 1 0.381502 0.194401 0.314755
566 1 0.450152 0.0518325 0.375497
568 1 0.375596 0.0677676 0.436587
570 1 0.308095 0.181214 0.377671
577 1 0.256542 0.00727859 0.49736
563 1 0.315846 0.000345595 0.439998
564 1 0.258745 0.0652817 0.441383
578 1 0.313227 0.0701007 0.497632
585 1 0.251284 0.129493 0.497944
571 1 0.317599 0.129259 0.441965
575 1 0.436101 0.128779 0.437513
589 1 0.377789 0.129687 0.498309
586 1 0.316193 0.192029 0.493635
576 1 0.378527 0.190703 0.438667
581 1 0.370808 0.00380972 0.509223
580 1 0.255862 0.0686012 0.555081
584 1 0.3778 0.0653545 0.562163
582 1 0.441516 0.0632167 0.501629
1097 1 0.49732 0.12476 0.501297
587 1 0.314444 0.126553 0.55402
591 1 0.437182 0.125045 0.561846
588 1 0.253456 0.192152 0.55514
592 1 0.374815 0.195892 0.557568
590 1 0.436939 0.19157 0.501385
1100 1 0.498801 0.194931 0.560819
579 1 0.310515 0.000728985 0.562527
597 1 0.376057 0.00590876 0.620356
583 1 0.436594 0.0039133 0.564203
594 1 0.311442 0.0627037 0.619924
605 1 0.372018 0.123623 0.616214
1092 1 0.498071 0.0678805 0.565745
601 1 0.257234 0.128531 0.611042
602 1 0.309634 0.189519 0.619256
725 1 0.374632 0.240881 0.624192
598 1 0.43951 0.0606086 0.626018
599 1 0.444053 0.000527645 0.682868
600 1 0.377366 0.0677374 0.683988
1108 1 0.49536 0.0663583 0.684373
603 1 0.31136 0.128211 0.677608
606 1 0.438592 0.186977 0.625177
727 1 0.450498 0.24811 0.681567
596 1 0.258479 0.0601882 0.689053
595 1 0.316954 0.00695827 0.690622
613 1 0.386677 0.00428684 0.744301
617 1 0.255844 0.124439 0.741668
614 1 0.438067 0.0708351 0.749178
607 1 0.436634 0.131788 0.688683
604 1 0.257696 0.197777 0.69162
608 1 0.370997 0.188661 0.688494
610 1 0.311153 0.0608323 0.755131
611 1 0.316855 0.00282306 0.812433
615 1 0.436889 0.011756 0.81067
1121 1 0.499826 0.00107799 0.752075
619 1 0.313215 0.120417 0.812083
616 1 0.375365 0.0656646 0.805155
621 1 0.372915 0.126529 0.750145
618 1 0.317651 0.199116 0.753375
743 1 0.441186 0.245094 0.809248
622 1 0.448676 0.191232 0.752156
629 1 0.373607 0.0131185 0.867205
612 1 0.252421 0.0646163 0.820821
1124 1 0.492939 0.0723596 0.815112
620 1 0.257133 0.182361 0.815024
634 1 0.312769 0.183983 0.87148
623 1 0.427866 0.129633 0.817966
624 1 0.370475 0.190574 0.814764
1265 1 0.496205 0.248503 0.871765
630 1 0.435253 0.06108 0.880551
633 1 0.253198 0.12486 0.878597
626 1 0.312978 0.0670624 0.876055
1145 1 0.496789 0.123154 0.882116
637 1 0.374872 0.125162 0.882697
753 1 0.255788 0.246136 0.88096
638 1 0.441199 0.190889 0.875332
518 1 0.432751 0.0622048 0.998665
631 1 0.442372 0.000680496 0.93935
1140 1 0.497427 0.0623453 0.94522
628 1 0.257642 0.0653799 0.942222
632 1 0.367935 0.0625134 0.940193
635 1 0.310098 0.13305 0.937866
525 1 0.367563 0.129183 0.997613
639 1 0.437869 0.129946 0.944745
522 1 0.307952 0.200254 0.995812
640 1 0.372443 0.190557 0.942632
1148 1 0.496523 0.191695 0.94122
646 1 0.440213 0.311039 0.00139905
642 1 0.309051 0.31408 0.000975577
648 1 0.370467 0.320218 0.0533154
655 1 0.429728 0.374873 0.0590874
650 1 0.310841 0.436984 0.00350819
656 1 0.372407 0.436676 0.0556619
1164 1 0.489369 0.430001 0.0510851
658 1 0.307372 0.309568 0.123516
647 1 0.432608 0.251621 0.0700045
651 1 0.306421 0.371889 0.0626759
662 1 0.424647 0.316559 0.124969
1156 1 0.488392 0.316801 0.0711933
665 1 0.251708 0.375523 0.124125
666 1 0.309324 0.437016 0.122703
669 1 0.365758 0.375028 0.122769
1297 1 0.496613 0.491525 0.118398
659 1 0.311782 0.250413 0.178415
663 1 0.43631 0.262212 0.181806
671 1 0.427158 0.376116 0.182457
672 1 0.363077 0.441644 0.181124
670 1 0.430054 0.439602 0.125247
1180 1 0.494538 0.439888 0.177773
664 1 0.367451 0.313597 0.19052
678 1 0.439487 0.317136 0.244478
667 1 0.307376 0.376662 0.199696
668 1 0.250814 0.435225 0.188336
686 1 0.436476 0.435955 0.240589
805 1 0.381643 0.493502 0.246511
1313 1 0.49869 0.491297 0.24906
676 1 0.252762 0.310666 0.31007
673 1 0.258378 0.252579 0.255723
677 1 0.377604 0.257573 0.25339
679 1 0.437932 0.255019 0.307617
685 1 0.369474 0.374358 0.254768
674 1 0.315365 0.312963 0.25254
680 1 0.375635 0.314248 0.311356
682 1 0.312576 0.447095 0.253811
688 1 0.380219 0.442015 0.309915
675 1 0.320647 0.254587 0.313007
693 1 0.380756 0.250341 0.374755
697 1 0.253031 0.368346 0.370746
687 1 0.446584 0.374182 0.315174
694 1 0.438702 0.313125 0.37242
684 1 0.251056 0.434796 0.31452
683 1 0.31618 0.386011 0.322539
702 1 0.438939 0.43391 0.370748
803 1 0.314803 0.493851 0.321948
821 1 0.381213 0.497688 0.37145
807 1 0.444365 0.499399 0.313856
696 1 0.37089 0.311267 0.435694
690 1 0.312833 0.307805 0.379695
701 1 0.372529 0.3705 0.379423
703 1 0.435281 0.368149 0.436594
1209 1 0.499931 0.369106 0.375334
698 1 0.312549 0.433859 0.385863
819 1 0.310886 0.499801 0.437148
1329 1 0.499825 0.495964 0.378795
705 1 0.250928 0.256175 0.497616
691 1 0.315664 0.252457 0.437821
695 1 0.435088 0.253685 0.440866
709 1 0.375361 0.2532 0.499119
692 1 0.251646 0.318488 0.439643
699 1 0.313099 0.372762 0.445965
717 1 0.376945 0.371878 0.495102
710 1 0.435037 0.313382 0.499039
1225 1 0.49894 0.374225 0.498763
1204 1 0.496937 0.313125 0.44454
700 1 0.254087 0.436838 0.451975
704 1 0.369865 0.438825 0.437594
823 1 0.436755 0.492888 0.443095
707 1 0.308771 0.253769 0.560898
711 1 0.437586 0.255413 0.559315
713 1 0.254803 0.37323 0.502053
706 1 0.313694 0.316685 0.501638
714 1 0.319308 0.425812 0.5083
837 1 0.370265 0.4984 0.505734
839 1 0.43519 0.499054 0.56062
718 1 0.433389 0.438162 0.50186
721 1 0.257197 0.253725 0.623535
712 1 0.373925 0.31126 0.562755
708 1 0.253406 0.316658 0.567392
715 1 0.312823 0.37453 0.568501
719 1 0.442905 0.374753 0.569101
729 1 0.253084 0.377688 0.621141
720 1 0.380065 0.436581 0.56677
716 1 0.25812 0.442586 0.567492
722 1 0.313188 0.314551 0.627413
726 1 0.436175 0.316473 0.629418
733 1 0.37259 0.375081 0.629918
735 1 0.437449 0.38209 0.677478
732 1 0.250399 0.440962 0.686577
853 1 0.372291 0.49936 0.626027
730 1 0.316882 0.439684 0.625697
734 1 0.431341 0.446989 0.625152
855 1 0.4342 0.496851 0.686931
723 1 0.310963 0.261593 0.690043
728 1 0.381205 0.310542 0.693071
731 1 0.311051 0.382834 0.687809
749 1 0.372466 0.375214 0.742616
851 1 0.315169 0.495374 0.695575
736 1 0.378025 0.438215 0.690639
750 1 0.437922 0.440807 0.7496
744 1 0.374182 0.311976 0.810964
741 1 0.379752 0.251371 0.750288
738 1 0.304455 0.316827 0.751903
747 1 0.302652 0.371365 0.812071
751 1 0.429491 0.374818 0.809335
742 1 0.437616 0.314962 0.752032
746 1 0.315562 0.432399 0.757177
1260 1 0.497881 0.435919 0.806632
865 1 0.250447 0.497328 0.751233
867 1 0.315895 0.498387 0.808949
869 1 0.37876 0.496472 0.75434
871 1 0.437962 0.497526 0.808623
739 1 0.307127 0.257506 0.815682
757 1 0.373654 0.252729 0.872797
754 1 0.305834 0.313427 0.874347
1252 1 0.498914 0.314465 0.820871
765 1 0.367798 0.376205 0.865794
1273 1 0.493503 0.38611 0.874727
762 1 0.309314 0.438236 0.868425
752 1 0.379149 0.439208 0.814368
759 1 0.431201 0.259201 0.932273
763 1 0.300569 0.368535 0.932271
760 1 0.370489 0.31941 0.926258
758 1 0.436134 0.328085 0.876032
767 1 0.430297 0.384478 0.933482
883 1 0.304872 0.495676 0.928013
768 1 0.371547 0.438536 0.934334
885 1 0.372754 0.496757 0.878518
766 1 0.437322 0.443229 0.876969
755 1 0.317412 0.258155 0.939735
645 1 0.37495 0.257709 0.992098
653 1 0.368668 0.380241 0.995265
654 1 0.428667 0.442635 0.993681
1276 1 0.497392 0.443803 0.947863
771 1 0.313321 0.502172 0.0580211
775 1 0.434754 0.501513 0.0550386
776 1 0.378709 0.56556 0.060831
778 1 0.31145 0.68467 0.00451295
784 1 0.373142 0.68391 0.0599498
782 1 0.433339 0.686928 0.00280847
1289 1 0.498807 0.626351 0.00670994
772 1 0.253221 0.554316 0.0643608
789 1 0.376864 0.502169 0.117336
1284 1 0.496053 0.559176 0.0660732
779 1 0.311481 0.622487 0.0632545
797 1 0.369153 0.621755 0.123233
783 1 0.439994 0.623499 0.066744
780 1 0.254164 0.681852 0.0644443
899 1 0.306663 0.747225 0.0687167
917 1 0.377951 0.74637 0.121973
798 1 0.439686 0.694826 0.124855
1292 1 0.494092 0.688206 0.0633689
786 1 0.31029 0.558493 0.125501
787 1 0.302799 0.502124 0.18627
792 1 0.374777 0.560753 0.180144
791 1 0.436219 0.500591 0.187468
790 1 0.437471 0.563361 0.130826
799 1 0.445212 0.626942 0.186245
794 1 0.309345 0.688838 0.132644
1308 1 0.498883 0.690655 0.183927
802 1 0.32366 0.55242 0.248423
795 1 0.305826 0.613493 0.191805
813 1 0.375134 0.613308 0.245556
806 1 0.446641 0.563219 0.246755
810 1 0.311905 0.674865 0.245927
814 1 0.432507 0.685868 0.248047
800 1 0.376066 0.693516 0.189484
1441 1 0.49979 0.745881 0.246968
804 1 0.257265 0.564379 0.303268
811 1 0.319302 0.622473 0.30839
808 1 0.381756 0.563367 0.312126
1316 1 0.489816 0.569445 0.312092
812 1 0.251871 0.682273 0.306243
815 1 0.433552 0.629197 0.30705
816 1 0.373079 0.691476 0.305061
935 1 0.438559 0.746281 0.305029
817 1 0.250912 0.505148 0.372477
829 1 0.376369 0.624604 0.369242
825 1 0.250123 0.628802 0.37106
826 1 0.31329 0.684108 0.364312
830 1 0.440713 0.686921 0.373365
1457 1 0.495532 0.747831 0.373335
827 1 0.311554 0.624988 0.431221
818 1 0.315109 0.563579 0.378565
822 1 0.42747 0.563042 0.383296
1337 1 0.49425 0.622744 0.383269
831 1 0.428133 0.627114 0.435529
828 1 0.251567 0.691344 0.436025
832 1 0.379364 0.689947 0.425007
820 1 0.255383 0.557165 0.438149
824 1 0.372713 0.552629 0.44264
1332 1 0.497513 0.565101 0.44143
842 1 0.315429 0.67583 0.492923
845 1 0.380234 0.625749 0.49972
947 1 0.314896 0.745096 0.439717
846 1 0.431214 0.689919 0.491968
838 1 0.434167 0.559943 0.50526
834 1 0.308916 0.564074 0.507732
843 1 0.312399 0.625113 0.56137
844 1 0.258021 0.687127 0.554958
848 1 0.379654 0.681573 0.559158
1353 1 0.496027 0.626698 0.505852
963 1 0.326082 0.740692 0.555533
967 1 0.438021 0.746597 0.55933
835 1 0.309912 0.508496 0.56755
849 1 0.250473 0.506652 0.621157
840 1 0.372391 0.560331 0.564871
847 1 0.44383 0.619066 0.571146
857 1 0.253413 0.627039 0.621672
858 1 0.312706 0.687322 0.616499
981 1 0.376902 0.749622 0.61871
1356 1 0.498774 0.690684 0.569041
854 1 0.433638 0.556436 0.62818
1361 1 0.498799 0.503787 0.627541
852 1 0.254698 0.567675 0.684134
850 1 0.316422 0.563511 0.63013
861 1 0.373126 0.619823 0.631356
863 1 0.438487 0.614804 0.683358
977 1 0.251423 0.746846 0.627362
979 1 0.316494 0.74255 0.683297
862 1 0.43602 0.689145 0.625647
983 1 0.438309 0.745783 0.687033
866 1 0.312157 0.561199 0.749679
856 1 0.373974 0.56079 0.696054
859 1 0.317136 0.620925 0.696947
860 1 0.259601 0.684901 0.688149
864 1 0.375802 0.685581 0.689512
878 1 0.438858 0.689145 0.749113
870 1 0.437101 0.554362 0.754493
872 1 0.375678 0.561501 0.807835
875 1 0.316045 0.618292 0.808024
877 1 0.379037 0.627057 0.754187
874 1 0.304084 0.690276 0.761196
880 1 0.373376 0.69306 0.811565
868 1 0.251122 0.559895 0.815111
882 1 0.316325 0.562326 0.871233
889 1 0.254051 0.62202 0.864362
893 1 0.364565 0.637236 0.874294
879 1 0.435817 0.63226 0.816817
999 1 0.436333 0.748408 0.817833
1396 1 0.496206 0.560708 0.933994
1393 1 0.496733 0.500226 0.877615
888 1 0.364277 0.57725 0.933373
886 1 0.427956 0.564472 0.878915
1401 1 0.490605 0.615732 0.877464
1404 1 0.498812 0.684492 0.935622
890 1 0.305804 0.69832 0.877974
894 1 0.436297 0.692364 0.878821
1521 1 0.498843 0.747568 0.87954
769 1 0.257732 0.503004 0.99821
773 1 0.366533 0.510558 0.98858
887 1 0.436396 0.502764 0.940492
1281 1 0.499146 0.50821 0.997906
770 1 0.310389 0.568853 0.997555