ITEM: TIMESTEP
100000
ITEM: NUMBER OF ATOMS
2048
ITEM: BOX BOUNDS pp pp pp
0.0000000000000000e+00 1.2302095357258066e+01
0.0000000000000000e+00 1.2302095357258066e+01
0.0000000000000000e+00 1.2302095357258066e+01
ITEM: ATOMS id type xs ys zs
1101 1 0.214193 0.197082 0.0386402
346 1 0.214532 0.0809098 0.142455
1634 1 0.183696 0.239292 0.235675
617 1 0.182098 0.152692 0.103226
83 1 0.00344961 0.231384 0.106187
970 1 0.0891234 0.130403 0.0252485
1201 1 0.123336 0.20134 0.188409
1681 1 0.0349148 0.166663 0.0688572
1392 1 0.142323 0.0323888 0.00680111
2029 1 0.142329 0.109708 0.165331
1762 1 0.152796 0.0785583 0.085815
866 1 0.231167 0.0222414 0.0804722
1141 1 0.155534 0.0223442 0.160093
62 1 0.209282 0.0932603 0.0254609
648 1 0.168424 0.226848 0.119044
1570 1 0.0814318 0.0291113 0.222932
1843 1 0.0475809 0.183874 0.202372
1237 1 0.082759 0.232508 0.117035
314 1 0.0676026 0.0689553 0.0707197
1912 1 0.0241781 0.111419 0.12099
300 1 0.0800157 0.0391527 0.138243
2006 1 0.0699424 0.102372 0.187312
279 1 0.201299 0.170727 0.185759
1915 1 0.000369237 0.0658337 0.216109
925 1 0.0114492 0.0138372 0.0869217
27 1 0.0973439 0.152818 0.122426
1312 1 0.2477 0.202807 0.116998
1554 1 0.216316 0.117264 0.243087
992 1 0.132748 0.134019 0.247553
1928 1 0.15441 0.0627319 0.224998
760 1 0.237147 0.00109818 0.154248
317 1 0.0712341 0.0195165 0.375971
612 1 0.0169228 0.10765 0.448696
990 1 0.0648665 0.118549 0.384555
965 1 0.220009 0.0186341 0.308005
2028 1 0.218629 0.220682 0.356358
598 1 0.0849618 0.241644 0.479709
1812 1 0.193161 0.093029 0.317944
1038 1 0.117673 0.0403696 0.296684
188 1 0.172699 0.162663 0.36375
436 1 0.225715 0.130214 0.41726
1923 1 0.0930594 0.204702 0.36617
253 1 0.144913 0.206982 0.429669
1922 1 0.0132475 0.231972 0.343798
529 1 0.0813041 0.0557792 0.450279
1715 1 0.0526653 0.176799 0.442895
1015 1 0.113186 0.132759 0.470854
700 1 0.162229 0.0680274 0.445552
1005 1 0.0102734 0.132168 0.33476
2025 1 0.191232 0.166216 0.483068
635 1 0.029511 0.133907 0.260005
1526 1 0.140042 0.0935214 0.374475
962 1 0.194967 0.242501 0.482565
1772 1 0.0947301 0.13828 0.31575
1262 1 0.214491 0.0533689 0.384479
1449 1 0.0101496 0.210107 0.265902
752 1 0.0370099 0.0611837 0.301492
2042 1 0.102323 0.206247 0.282268
1743 1 0.186014 0.176081 0.28674
683 1 0.146645 0.0128546 0.393762
572 1 0.175759 0.245187 0.64932
396 1 0.0895153 0.0763372 0.633268
1356 1 0.0913844 0.0908344 0.535794
994 1 0.0723835 0.139777 0.67032
1813 1 0.137994 0.14779 0.607851
842 1 0.219994 0.0586211 0.518352
1028 1 0.0174889 0.0576254 0.602905
446 1 0.0514016 0.138457 0.590793
1584 1 0.142075 0.105463 0.680001
1427 1 0.177698 0.0582764 0.737848
1238 1 0.0159987 0.0592234 0.688305
818 1 0.138656 0.0334984 0.513481
179 1 0.107299 0.216443 0.620605
1451 1 0.215346 0.117514 0.606087
2046 1 0.00486428 0.0998123 0.530375
1216 1 0.171929 0.118498 0.540668
837 1 0.034362 0.179586 0.525723
250 1 0.116039 0.200039 0.695396
847 1 0.205085 0.0559363 0.659355
1980 1 0.201741 0.195633 0.586967
660 1 0.149143 0.0401339 0.597493
315 1 0.111463 0.177209 0.541658
556 1 0.0445266 0.184548 0.74189
1107 1 0.0916215 0.0753392 0.72792
1730 1 0.194045 0.170678 0.6667
55 1 0.0268328 0.209618 0.624353
1323 1 0.13521 0.0194586 0.67396
819 1 0.0684679 0.241037 0.558415
1322 1 0.0344103 0.00896563 0.502645
1612 1 0.186567 0.234198 0.72948
277 1 0.0780118 0.0171701 0.570831
685 1 0.234885 0.119767 0.717144
355 1 0.166305 0.147708 0.741853
1677 1 0.00304596 0.250127 0.507324
672 1 0.0652495 -0.00109462 0.648618
1154 1 0.00647813 0.239953 0.700458
1798 1 0.131066 0.0743031 0.801346
491 1 0.0355298 0.152719 0.891704
1716 1 0.235481 0.0241024 0.79769
1229 1 0.139077 0.0125304 0.932427
1211 1 0.0253848 0.0781047 0.984342
433 1 0.0452353 0.201003 0.829322
1390 1 0.00561518 0.112154 0.74895
1533 1 0.241078 0.185741 0.760651
2016 1 0.113063 0.198147 0.782446
1363 1 0.0693819 0.00912493 0.972554
13 1 0.197763 0.0614269 0.957079
93 1 0.0531697 0.0208934 0.807336
1474 1 0.0130489 0.096848 0.841355
1279 1 0.0958912 0.0664216 0.875659
1206 1 0.183075 0.178723 0.845866
1588 1 0.107124 0.156715 0.859799
1243 1 0.228624 0.118925 0.79802
1249 1 0.0868051 0.108698 0.947603
451 1 0.162295 0.0136723 0.839414
57 1 0.181185 0.140621 0.917341
43 1 0.231458 0.1987 0.919769
132 1 0.254997 0.126499 0.950641
534 1 0.072782 0.128333 0.790046
824 1 0.0505693 0.241799 0.918181
594 1 0.0201285 0.0372933 0.913038
397 1 0.0955887 0.185043 0.949378
886 1 0.197315 0.081547 0.868621
1967 1 0.181499 0.229803 0.974196
1787 1 0.0211499 0.165381 0.96997
1815 1 0.162099 0.155243 0.991094
1355 1 0.111793 0.236706 0.856247
798 1 0.240779 0.0021123 0.925454
463 1 0.0749473 0.325923 0.0193016
1396 1 0.0539632 0.385788 0.0805405
2033 1 0.170839 0.320769 0.112104
50 1 0.246512 0.432584 0.0141759
1894 1 0.209261 0.357034 0.0456886
1585 1 0.0413498 0.48178 0.0772707
1102 1 0.0251055 0.40911 0.0161143
1707 1 0.225073 0.46476 0.0871344
374 1 0.0878764 0.311892 0.092106
1317 1 0.116233 0.442457 0.123047
567 1 0.111206 0.365285 0.147464
1367 1 0.234788 0.292076 0.0745393
1607 1 0.182984 0.401079 0.102267
456 1 0.0469701 0.41185 0.155094
1962 1 0.13066 0.367645 0.0552344
236 1 0.0816099 0.276245 0.244466
1755 1 0.113674 0.49089 0.22015
803 1 0.0994103 0.351341 0.228155
1972 1 0.167863 0.482157 0.163221
764 1 0.183944 0.349259 0.18632
1400 1 0.0999767 0.452426 0.0389078
716 1 0.0393784 0.281828 0.171757
1097 1 0.14071 0.265801 0.0613586
2038 1 0.0218349 0.485291 0.210993
335 1 0.148972 0.419545 0.218455
296 1 0.140065 0.277553 0.171095
1414 1 0.224899 0.272794 0.169584
715 1 0.00968916 0.336523 0.126157
593 1 0.226364 0.431467 0.189893
1252 1 0.020676 0.343066 0.215515
2021 1 0.172778 0.481225 0.0294377
915 1 0.0599299 0.421532 0.230122
926 1 0.0565992 0.2525 0.0398309
1633 1 0.154056 0.470031 0.298603
1596 1 0.060107 0.480682 0.420159
137 1 0.0958365 0.286787 0.417022
1491 1 0.0859241 0.42445 0.354966
1848 1 0.00791496 0.445134 0.287591
1415 1 0.128059 0.363818 0.395087
1724 1 0.0229346 0.256229 0.425412
1653 1 0.0945705 0.309049 0.336011
1499 1 0.200456 0.336941 0.423804
1859 1 0.191844 0.343367 0.329831
1655 1 0.0441332 0.358797 0.305393
361 1 0.130363 0.385181 0.300414
1381 1 0.161719 0.261646 0.31272
273 1 0.013216 0.49516 0.487044
363 1 0.0670207 0.331694 0.472695
757 1 0.205542 0.388824 0.260295
1650 1 0.0508036 0.346892 0.386598
225 1 0.14778 0.312912 0.475605
192 1 0.250309 0.449745 0.277237
1545 1 0.121571 0.477991 0.483358
1120 1 0.0757758 0.409068 0.445394
1601 1 0.221471 0.42268 0.408799
297 1 0.165182 0.319415 0.255798
497 1 0.200863 0.417618 0.334325
1137 1 0.134666 0.445412 0.413267
1333 1 0.169052 0.281607 0.386633
1402 1 0.202943 0.48783 0.446571
111 1 0.241602 0.270823 0.278355
1615 1 0.168355 0.407908 0.474137
910 1 0.198539 0.499219 0.370838
213 1 0.250642 0.29129 0.356836
332 1 0.00367305 0.285591 0.286372
1587 1 0.192498 0.459041 0.526444
1713 1 0.0917151 0.455963 0.628269
1030 1 0.106279 0.315997 0.606052
123 1 0.183709 0.324653 0.633818
836 1 0.0321335 0.291193 0.625803
56 1 0.244588 0.293085 0.526436
1095 1 0.229226 0.286747 0.688427
694 1 0.00918211 0.38629 0.665605
283 1 0.107758 0.385074 0.524093
973 1 0.075494 0.266108 0.689418
1437 1 0.0475427 0.380549 0.58946
1732 1 0.242997 0.263995 0.604195
172 1 0.209297 0.389953 0.708006
1019 1 0.0405064 0.315968 0.54531
126 1 0.155815 0.272922 0.554718
183 1 0.0710152 0.426015 0.718827
1989 1 0.15546 0.448295 0.69503
919 1 0.0265861 0.391905 0.511311
35 1 0.141816 0.405332 0.594745
861 1 0.130633 0.379625 0.737113
666 1 0.038985 0.456769 0.561658
1788 1 0.22528 0.39444 0.620849
1198 1 0.0515649 0.346223 0.719956
835 1 0.171118 0.477533 0.61802
194 1 0.14455 0.300455 0.704935
1058 1 0.104588 0.373547 0.663587
665 1 0.183757 0.34426 0.542745
392 1 0.114734 0.491999 0.561963
761 1 0.150294 0.418658 0.800312
418 1 0.208672 0.329112 0.849272
47 1 0.0332362 0.46814 0.774425
139 1 0.173145 0.272994 0.891068
1235 1 0.0654222 0.305125 0.831478
707 1 0.063845 0.466142 0.857992
7 1 0.200547 0.482186 0.834706
258 1 0.106443 0.280634 0.771589
1178 1 0.0164359 0.263255 0.779953
855 1 0.225327 0.400744 0.829529
560 1 0.128899 0.438616 0.893358
1574 1 0.0034476 0.424942 0.932458
1555 1 0.119602 0.360054 0.971497
1387 1 0.080473 0.382931 0.865343
1416 1 0.188994 0.323644 0.770812
1362 1 0.0533311 0.381808 0.788285
1196 1 0.176263 0.256808 0.813066
1294 1 0.0822985 0.424404 0.955361
1287 1 0.178681 0.309538 0.993158
2044 1 0.0401239 0.351584 0.949596
209 1 0.200387 0.456042 0.757484
1379 1 0.134297 0.336118 0.829775
812 1 0.209424 0.435309 0.899398
1270 1 0.10212 0.317137 0.90619
1516 1 0.175514 0.353774 0.917814
986 1 0.0110821 0.308173 0.890071
1210 1 0.241217 0.378982 0.954563
872 1 0.112898 0.265083 0.979427
403 1 0.172204 0.43023 0.971753
768 1 0.236661 0.280021 0.93308
996 1 0.0396294 0.484736 0.994021
656 1 0.00472999 0.408497 0.84837
2014 1 0.119012 0.493418 0.953023
386 1 0.0717405 0.543394 0.039166
494 1 0.236998 0.609647 0.0725042
1472 1 0.0673694 0.553192 0.234242
916 1 0.0189499 0.718823 0.0765999
1942 1 0.0199656 0.62357 0.0352082
1460 1 0.0950002 0.602915 0.086578
832 1 0.23744 0.737608 0.0799514
1800 1 0.164579 0.582293 0.0612955
2004 1 0.172967 0.603839 0.136899
316 1 0.0223095 0.563362 0.0975117
221 1 0.110417 0.682167 0.145143
1153 1 0.155602 0.661848 0.217413
765 1 0.0488086 0.726009 0.164297
869 1 0.228043 0.53708 0.031589
357 1 0.215478 0.504845 0.227644
449 1 0.127614 0.628436 0.0126973
2002 1 0.239061 0.709858 0.180857
1163 1 0.0767612 0.613995 0.167904
393 1 0.123476 0.546935 0.164345
604 1 0.0405762 0.657931 0.110492
786 1 0.0456147 0.691301 0.235851
1303 1 0.138389 0.697973 0.0449566
1207 1 0.21462 0.535014 0.129713
527 1 0.190445 0.6808 0.121096
553 1 0.0684665 0.681164 0.0181754
141 1 0.0579605 0.511952 0.147121
146 1 0.0944364 0.748438 0.0890444
1343 1 0.140008 0.738626 0.196128
153 1 0.236971 0.620669 0.183439
898 1 0.0123521 0.614121 0.23612
479 1 0.122407 0.514263 0.0896663
1610 1 0.194212 0.742026 0.0015321
1227 1 0.166954 0.567962 0.23242
1895 1 0.250371 0.681576 0.0304115
1751 1 0.243728 0.670724 0.248886
307 1 0.209373 0.536461 0.305177
1273 1 0.0111035 0.600547 0.388356
2035 1 0.0379866 0.669731 0.311597
1006 1 0.116162 0.651984 0.335931
2037 1 0.189098 0.740695 0.386143
2022 1 0.0421045 0.552194 0.438629
964 1 0.192662 0.617303 0.303951
580 1 0.192448 0.700485 0.309126
2008 1 0.085009 0.690079 0.465523
1217 1 0.0700566 0.586286 0.317012
271 1 0.0875191 0.613007 0.39639
262 1 0.175037 0.680406 0.464416
1092 1 0.195015 0.604789 0.450444
1917 1 0.0976226 0.622693 0.250118
1761 1 0.0345908 0.631193 0.457983
614 1 0.13039 0.690268 0.400616
1712 1 0.219747 0.578367 0.377113
939 1 0.238712 0.737432 0.475215
398 1 0.1134 0.71282 0.270752
518 1 0.146444 0.572539 0.352284
74 1 0.13089 0.541793 0.429555
1064 1 0.0680934 0.498659 0.297498
326 1 0.198934 0.657688 0.378095
1748 1 0.11209 0.60721 0.468923
1103 1 0.0519425 0.73094 0.402996
1124 1 0.0359365 0.531226 0.361392
282 1 0.115972 0.502692 0.363523
1834 1 0.250041 0.662361 0.445297
371 1 0.000450567 0.712422 0.465424
129 1 0.239015 0.583431 0.247269
1070 1 0.161978 0.618594 0.526246
1475 1 0.208296 0.527859 0.696548
628 1 0.170318 0.732753 0.606704
440 1 0.173007 0.53547 0.499829
569 1 0.183595 0.562047 0.585469
1023 1 0.0583898 0.708063 0.546764
1419 1 0.144229 0.707816 0.5333
1088 1 0.0775833 0.630085 0.539908
1969 1 0.0912832 0.66981 0.729541
1722 1 0.235028 0.657084 0.710164
1440 1 0.0137633 0.577659 0.584434
1455 1 0.233323 0.708514 0.549275
1778 1 0.231904 0.591342 0.656824
1289 1 0.127161 0.519038 0.675179
1242 1 0.163234 0.68162 0.66846
663 1 0.250541 0.541895 0.545154
1495 1 0.193277 0.637597 0.597145
1841 1 0.233372 0.729257 0.732302
138 1 0.110187 0.581351 0.593286
940 1 0.0944414 0.590204 0.727523
121 1 0.0384383 0.60101 0.673341
1567 1 0.154712 0.596513 0.664463
1858 1 0.0689908 0.549905 0.536034
1066 1 0.117727 0.664103 0.595318
1050 1 0.055322 0.524854 0.620287
1090 1 0.0434254 0.524757 0.708475
728 1 0.0222001 0.685866 0.680957
324 1 0.0384192 0.644889 0.610107
24 1 0.104421 0.728362 0.64444
231 1 0.181405 0.61338 0.748556
1602 1 0.238967 0.701964 0.645136
37 1 0.21424 0.507757 0.958539
1866 1 0.0430309 0.638448 0.865383
983 1 0.250426 0.523312 0.794943
1364 1 0.185989 0.542672 0.887496
340 1 0.230383 0.590185 0.941416
1108 1 0.17979 0.737458 0.838999
1886 1 0.0111498 0.702523 0.761858
796 1 0.199111 0.737236 0.914732
1875 1 0.0792306 0.686673 0.809082
97 1 0.0575945 0.578674 0.967004
39 1 0.159969 0.656626 0.835109
1568 1 0.110961 0.600805 0.826851
1406 1 0.0374998 0.719521 0.865221
1254 1 0.0561404 0.707626 0.944183
1750 1 0.0339454 0.512032 0.915079
299 1 0.17479 0.547499 0.786865
1091 1 0.0113998 0.632764 0.936199
1284 1 0.0946631 0.637765 0.926816
1789 1 0.0999464 0.566249 0.894769
1129 1 0.106417 0.514481 0.758373
1267 1 0.0420319 0.617458 0.781067
408 1 0.245334 0.592996 0.849414
1760 1 0.16923 0.627357 0.905276
387 1 0.134257 0.714938 0.964656
980 1 0.165603 0.697848 0.766918
711 1 0.126421 0.707583 0.887002
170 1 0.157818 0.563271 0.973331
1678 1 0.0561447 0.540675 0.816256
1326 1 0.200554 0.657778 0.971058
1139 1 0.127098 0.50885 0.838056
1283 1 0.227188 0.660032 0.793659
1676 1 0.0935165 0.80336 0.168058
573 1 0.148688 0.840433 0.132723
1949 1 0.0145568 0.884446 0.0609543
445 1 0.0458139 0.933851 0.215294
122 1 0.108798 0.965438 0.146445
1543 1 0.190089 0.976455 0.230116
1376 1 0.162796 0.758531 0.12644
1285 1 0.155875 0.812149 0.220371
1512 1 0.0410654 0.864458 0.136888
1012 1 0.182558 0.904006 0.0979009
1373 1 0.0172775 0.794614 0.194435
180 1 0.0367966 0.94377 0.112433
1352 1 0.000933857 0.975631 0.0251868
1863 1 0.155237 0.796121 0.0579919
882 1 0.0982121 0.899023 0.0895208
415 1 0.2225 0.836404 0.0954926
1571 1 0.080303 0.762303 0.00972936
359 1 0.231165 0.775345 0.242169
800 1 0.138923 0.93501 0.0256016
1112 1 0.231653 0.947998 0.0480181
522 1 0.0683967 0.825654 0.0662341
1060 1 0.19854 0.870766 0.0226497
1311 1 0.10326 0.895835 0.18374
714 1 0.183361 0.92433 0.172102
585 1 0.079841 0.976272 0.0539515
1606 1 0.0837406 0.776288 0.237788
68 1 0.158218 0.990722 0.0716568
533 1 0.0123587 0.789592 0.0235019
1780 1 0.022863 0.786885 0.115067
1309 1 0.0100507 0.99458 0.247497
1985 1 0.246191 0.799367 0.0287258
457 1 0.217217 0.851449 0.177747
629 1 0.0507606 0.858267 0.22983
520 1 0.113441 0.961095 0.245293
1764 1 0.0598341 0.919732 0.00406117
705 1 0.243508 0.919518 0.231869
1807 1 0.0245866 0.998976 0.166044
1898 1 0.116042 0.862083 0.00607738
1388 1 0.15478 0.926352 0.414999
1456 1 0.153173 0.87885 0.332378
737 1 0.0150255 0.894897 0.46401
616 1 0.106745 0.830849 0.293508
949 1 0.192777 0.987238 0.468803
1182 1 0.232201 0.911651 0.454122
1987 1 0.0682734 0.90822 0.382086
1134 1 0.224669 0.85213 0.266184
2010 1 0.21833 0.899695 0.372348
2013 1 0.171088 0.772465 0.290424
34 1 0.00890564 0.831149 0.302408
1705 1 0.102446 0.885261 0.451369
370 1 0.208268 0.938449 0.306507
1717 1 0.24549 0.75784 0.326723
873 1 0.158693 0.760711 0.464976
1059 1 0.204339 0.822143 0.348961
1782 1 0.130192 0.956486 0.344294
1663 1 0.087161 0.909498 0.293189
2027 1 0.227261 0.978682 0.397335
1982 1 0.0610911 0.982569 0.305765
1192 1 0.0494671 0.811177 0.435018
1791 1 0.198142 0.846284 0.424631
344 1 0.0848373 0.764922 0.486704
669 1 0.118178 0.751889 0.353832
607 1 0.00885706 0.904966 0.328068
1149 1 0.0553326 0.80911 0.360069
71 1 0.12735 0.81259 0.417079
1541 1 0.233655 0.823464 0.490875
1559 1 0.0635126 0.961539 0.441283
1450 1 0.159428 0.916325 0.494495
53 1 0.0500329 0.750064 0.309679
1256 1 0.157671 0.832396 0.495125
1779 1 0.162892 0.897986 0.255218
1579 1 0.13816 0.828104 0.685824
639 1 0.163966 0.810554 0.613539
1913 1 0.0649082 0.866086 0.695773
1692 1 0.00792948 0.864316 0.577635
762 1 0.230747 0.867677 0.675985
59 1 0.0697851 0.758247 0.731185
1476 1 0.147102 0.872546 0.56117
1350 1 0.0887782 0.852336 0.606097
489 1 0.0374417 0.781646 0.577207
134 1 0.0389442 0.910318 0.635473
1305 1 0.0606541 0.997248 0.73102
582 1 0.213791 0.783117 0.68171
125 1 0.189804 0.775206 0.546155
1636 1 0.212452 0.915729 0.605999
1145 1 0.2269 0.838869 0.570509
559 1 0.0726166 0.861662 0.527784
1515 1 0.182781 0.979641 0.556015
1220 1 0.119862 0.953672 0.590033
1453 1 0.197384 0.974486 0.656103
1471 1 0.239075 0.905749 0.531225
1598 1 0.0532912 0.786415 0.65048
1347 1 0.0830432 0.945637 0.513797
442 1 0.147262 0.894728 0.638986
321 1 0.112384 0.785439 0.558091
904 1 0.119929 0.943702 0.703699
597 1 0.0194245 0.928717 0.715403
1888 1 0.0190864 0.962285 0.567898
1378 1 0.149777 0.753334 0.714036
85 1 0.187878 0.893015 0.73474
422 1 0.194215 0.977037 0.73913
216 1 0.237713 0.772585 0.607781
322 1 -0.000761854 0.787086 0.501646
1696 1 0.120709 0.899246 0.769899
1818 1 0.022186 0.770738 0.800244
295 1 0.11804 0.821852 0.762219
1277 1 0.229779 0.805385 0.947768
774 1 0.046547 0.928006 0.798754
1870 1 0.0802834 0.983106 0.879696
781 1 0.0802069 0.779546 0.895932
561 1 0.104034 0.769873 0.823391
19 1 0.0130535 0.76978 0.942413
606 1 0.217539 0.814469 0.867838
997 1 0.175937 0.889901 0.944972
1674 1 0.0717552 0.847548 0.844361
854 1 0.0409753 0.837983 0.767397
828 1 0.193252 0.786806 0.77618
998 1 0.181161 0.956957 0.895716
1020 1 0.23701 0.848812 0.792927
120 1 0.114385 0.912663 0.85476
470 1 0.160421 0.853908 0.820821
1081 1 0.0229757 0.950502 0.929285
252 1 0.0671748 0.882274 0.918125
1223 1 0.136727 0.84629 0.894773
377 1 0.115586 0.936959 0.939881
458 1 0.225639 0.89904 0.870262
884 1 0.0549625 0.827549 0.973435
542 1 0.194117 0.973221 0.984541
864 1 0.189651 0.943097 0.811757
1560 1 0.00793564 0.810668 0.871491
1826 1 0.146984 0.79286 0.954238
1244 1 0.116707 0.978155 0.784147
215 1 0.00735245 0.975694 0.8554
1172 1 0.00657912 0.890941 0.858064
110 1 0.442657 0.145548 0.236503
1393 1 0.2998 0.0622021 0.0657327
409 1 0.324631 0.175892 0.148914
2041 1 0.38083 0.215418 0.113177
982 1 0.457935 0.083468 0.0668853
26 1 0.36154 0.23748 0.0250508
1331 1 0.417941 0.02885 0.0182705
1649 1 0.382058 0.134298 0.19065
1423 1 0.303895 0.189764 0.0584996
868 1 0.344915 0.129926 0.0870734
492 1 0.271768 0.135279 0.189268
259 1 0.419194 0.0676852 0.229985
551 1 0.259901 0.127881 0.0952657
1009 1 0.417307 0.162723 0.0623536
838 1 0.36279 0.224465 0.197292
143 1 0.435611 0.245708 0.183081
197 1 0.437821 0.0867886 0.15421
1288 1 0.465547 0.00994929 0.196868
229 1 0.256088 0.0259835 0.000583288
1733 1 0.384919 0.100141 0.0205094
906 1 0.497394 0.0954601 0.21059
893 1 0.26112 0.0511406 0.223267
1346 1 0.449114 0.160934 0.142667
485 1 0.309436 0.119246 0.0103276
369 1 0.330938 0.0957927 0.247862
1469 1 0.333635 0.0266855 0.00645372
1320 1 0.28971 0.06163 0.148868
1434 1 0.385497 0.0659837 0.090921
1731 1 0.268767 0.217093 0.228417
956 1 0.452168 0.232275 0.0899968
1441 1 0.369909 0.0440216 0.168736
1747 1 0.490794 0.00994177 0.0597689
499 1 0.365112 0.0111612 0.245185
782 1 0.47069 0.17416 -0.000424089
867 1 0.430624 0.00589407 0.120838
1687 1 0.438302 0.245737 0.0109305
207 1 0.252718 0.145729 0.338458
1480 1 0.462494 0.0724988 0.432183
649 1 0.314226 0.242933 0.301061
1188 1 0.356414 0.0873345 0.454971
1695 1 0.375436 0.102516 0.310804
659 1 0.356057 0.177474 0.257785
789 1 0.326825 0.0330514 0.312058
1271 1 0.444545 0.222159 0.26023
439 1 0.394476 0.130079 0.391111
621 1 0.443906 0.0627929 0.32903
328 1 0.447412 0.0256837 0.493006
1802 1 0.336279 0.169028 0.421651
1345 1 0.306845 0.107946 0.381323
185 1 0.372835 0.0546375 0.376408
498 1 0.283538 0.156062 0.273001
1099 1 0.432471 0.157029 0.315102
1422 1 0.282597 0.124654 0.467272
930 1 0.269908 0.0822899 0.302794
1871 1 0.47265 0.131624 0.385869
822 1 0.294268 0.0187874 0.383621
777 1 0.355433 0.00543268 0.439266
54 1 0.32815 0.178597 0.339538
1001 1 0.401373 0.2175 0.426953
710 1 0.410275 0.143514 0.475666
187 1 0.480523 0.186149 0.46742
689 1 0.253875 0.0365661 0.451785
239 1 0.264432 0.19744 0.436081
1325 1 0.494714 0.209275 0.329005
1524 1 0.389439 0.232334 0.324596
1957 1 0.428041 0.00550793 0.41039
1316 1 0.495278 0.00679231 0.360328
1266 1 0.331809 0.24639 0.382576
73 1 0.474338 0.126571 0.516247
1565 1 0.423655 0.19935 0.640182
1017 1 0.262864 0.04744 0.722656
754 1 0.341462 0.112308 0.594774
740 1 0.302424 0.0504004 0.509736
1718 1 0.428979 0.129167 0.604856
104 1 0.258988 0.219749 0.664114
1194 1 0.463768 0.0775881 0.65429
184 1 0.49032 0.22644 0.73168
806 1 0.314977 0.208261 0.740395
2031 1 0.312922 0.0678469 0.667532
473 1 0.397317 0.0544294 0.617707
390 1 0.470959 0.158005 0.690223
860 1 0.271687 0.115227 0.555896
1339 1 0.375466 0.18758 0.584314
888 1 0.402607 0.141618 0.740166
1147 1 0.293282 0.201382 0.591523
311 1 0.445058 0.073452 0.745564
1527 1 0.319937 0.132161 0.722611
1736 1 0.4667 0.0559132 0.581701
1389 1 0.267665 0.0505652 0.593974
1698 1 0.383106 0.11579 0.670887
303 1 0.40906 0.0862774 0.534013
506 1 0.338718 0.139889 0.516775
845 1 0.262473 0.201482 0.512319
1191 1 0.449983 0.195721 0.555338
1769 1 0.348616 0.186999 0.671556
310 1 0.28283 0.142742 0.643507
1520 1 0.392887 0.20994 0.508011
1785 1 0.39149 0.0430359 0.697619
1513 1 0.33814 0.0201579 0.579194
1665 1 0.383233 0.160881 0.815103
1700 1 0.360416 0.0891789 0.780341
1666 1 0.306054 0.244772 0.919996
1490 1 0.482734 0.161552 0.916307
1539 1 0.47462 0.23754 0.886058
1688 1 0.385057 0.170839 0.987986
1721 1 0.450406 0.106963 0.813877
1008 1 0.459301 0.103409 0.961663
524 1 0.327959 0.237222 0.808841
133 1 0.456122 0.187822 0.820311
1435 1 0.299456 0.151371 0.800156
1200 1 0.42789 0.0744153 0.884882
645 1 0.38263 0.0687759 0.949287
671 1 0.382084 0.222639 0.922691
1052 1 0.479683 0.00514264 0.970291
1465 1 0.369338 0.0306393 0.852342
181 1 0.402773 0.146116 0.914102
402 1 0.274976 0.0579374 0.869741
510 1 0.268962 0.135722 0.87415
486 1 0.342203 0.106821 0.867846
1179 1 0.326774 0.151541 0.94043
1391 1 0.313242 0.0245631 0.785713
1219 1 0.329835 0.187486 0.87244
1140 1 0.304986 0.0709751 0.946115
174 1 0.394746 0.0123214 0.773638
1257 1 0.400874 0.220283 0.758753
1407 1 0.445626 0.000897868 0.848305
98 1 0.277697 0.242095 0.994129
1160 1 0.25518 0.207361 0.837814
541 1 0.400109 0.248362 0.847288
566 1 0.289137 0.362588 0.0371332
978 1 0.471024 0.310762 0.222766
164 1 0.40251 0.299366 0.0650948
576 1 0.420695 0.4258 0.219727
1851 1 0.461279 0.425612 0.0410853
1086 1 0.337087 0.355543 0.11595
1641 1 0.350068 0.462806 0.207592
82 1 0.259952 0.337131 0.141194
159 1 0.364543 0.360536 0.0209624
512 1 0.41872 0.373992 0.0932739
12 1 0.480308 0.330451 0.0631234
1489 1 0.335429 0.341938 0.215199
1479 1 0.293799 0.395992 0.182691
44 1 0.434002 0.495783 0.17644
850 1 0.255686 0.335791 0.228557
1933 1 0.370848 0.289474 0.141101
1569 1 0.441619 0.497917 0.0953141
1702 1 0.398827 0.288214 0.240497
1934 1 0.291236 0.263431 0.112975
304 1 0.304009 0.274644 0.189085
969 1 0.448115 0.29875 0.133004
1852 1 0.355952 0.441137 0.0702727
1600 1 0.464742 0.425042 0.126184
1558 1 0.498854 0.433852 0.205435
1508 1 0.289694 0.422235 0.102372
1296 1 0.417857 0.358669 0.18169
176 1 0.385851 0.419198 0.146956
108 1 0.322019 0.298673 0.0516769
1054 1 0.291495 0.491709 0.0376459
1018 1 0.275135 0.485594 0.15917
1117 1 0.397163 0.451127 0.00094365
1720 1 0.317333 0.47993 0.426054
1319 1 0.27492 0.482325 0.357057
1330 1 0.313317 0.395554 0.405827
1592 1 0.478722 0.480513 0.271228
10 1 0.469637 0.302959 0.441977
901 1 0.404575 0.310639 0.313476
162 1 0.468074 0.384413 0.264088
1462 1 0.300909 0.324655 0.291548
333 1 0.318181 0.41494 0.503457
641 1 0.254652 0.377251 0.472678
136 1 0.394362 0.297901 0.415484
1830 1 0.461875 0.347359 0.361398
345 1 0.385654 0.371281 0.266264
1835 1 0.324096 0.323712 0.371542
1746 1 0.317652 0.416034 0.263969
500 1 0.277725 0.481892 0.495412
1085 1 0.436962 0.428092 0.323445
876 1 0.469351 0.488519 0.363179
627 1 0.464225 0.382707 0.430426
1562 1 0.338999 0.433508 0.344881
475 1 0.386638 0.393013 0.468114
1236 1 0.38451 0.461594 0.275225
830 1 0.44864 0.445352 0.488004
2003 1 0.266602 0.304099 0.443162
619 1 0.386606 0.370621 0.359714
877 1 0.333329 0.337053 0.457183
427 1 0.40009 0.444672 0.405087
1662 1 0.390681 0.297093 0.498109
1199 1 0.275689 0.379904 0.338282
1613 1 0.44859 0.256147 0.380237
1369 1 0.377473 0.483113 0.478419
1496 1 0.327868 0.253112 0.466437
238 1 0.399055 0.473435 0.697399
909 1 0.361354 0.49817 0.557715
732 1 0.455564 0.407718 0.718214
161 1 0.28745 0.464725 0.589664
874 1 0.460003 0.250738 0.500068
590 1 0.281197 0.345233 0.710832
1997 1 0.372701 0.267625 0.620924
1016 1 0.39105 0.34333 0.570531
198 1 0.27983 0.334739 0.618015
416 1 0.46072 0.383868 0.583262
622 1 0.497159 0.319953 0.733798
1105 1 0.259342 0.399888 0.549637
903 1 0.431259 0.372943 0.650711
2043 1 0.42322 0.265195 0.687371
327 1 0.484467 0.464353 0.65446
61 1 0.39625 0.329663 0.718868
1726 1 0.38972 0.424041 0.537734
684 1 0.359713 0.405588 0.70158
380 1 0.29286 0.401775 0.658697
575 1 0.313792 0.281421 0.667032
1043 1 0.353969 0.344915 0.642502
1481 1 0.334109 0.28927 0.745135
1042 1 0.333082 0.400498 0.586681
1775 1 0.38926 0.438816 0.622541
1063 1 0.437844 0.273038 0.571605
784 1 0.317718 0.341104 0.529648
1903 1 0.44982 0.343811 0.507852
1098 1 0.253384 0.466871 0.686797
1865 1 0.446421 0.465628 0.573544
577 1 0.317398 0.267567 0.556876
389 1 0.492055 0.251881 0.643084
942 1 0.273079 0.417439 0.746427
1693 1 0.283196 0.284465 0.854687
503 1 0.426007 0.29109 0.788142
531 1 0.294558 0.444841 0.818844
955 1 0.359671 0.297668 0.894641
1170 1 0.454137 0.386516 0.924276
1240 1 0.43533 0.327944 0.860288
480 1 0.496187 0.38125 0.860739
101 1 0.435418 0.450931 0.781298
1039 1 0.289338 0.439417 0.901796
677 1 0.347605 0.313629 0.818355
434 1 0.375976 0.296088 0.978758
540 1 0.369674 0.458437 0.917796
268 1 0.497379 0.305858 0.819978
1578 1 0.359826 0.387905 0.857316
135 1 0.276581 0.347388 0.803703
1623 1 0.431302 0.428297 0.860871
1482 1 0.25747 0.269737 0.765767
1839 1 0.45439 0.371257 0.789933
1862 1 0.370057 0.455233 0.816887
880 1 0.3136 0.488517 0.9631
477 1 0.441922 0.284682 0.934986
1418 1 0.366204 0.363199 0.939889
717 1 0.310879 0.406618 0.970741
285 1 0.371949 0.380575 0.778936
417 1 0.484748 0.444463 0.963571
2036 1 0.441845 0.346761 0.993781
638 1 0.272133 0.359941 0.887737
546 1 0.30163 0.321036 0.962134
1431 1 0.32394 0.480352 0.75455
102 1 0.295157 0.725701 0.237526
1759 1 0.329034 0.608937 0.13176
220 1 0.474408 0.613177 0.227567
675 1 0.45559 0.734433 0.0129765
653 1 0.279664 0.548058 0.0895772
745 1 0.33367 0.688948 0.00311964
738 1 0.391019 0.554405 0.122574
1711 1 0.452654 0.679477 0.180983
1230 1 0.46455 0.676426 0.0831325
334 1 0.362341 0.543327 0.194354
923 1 0.441446 0.577497 0.071962
827 1 0.413384 0.632241 0.128387
1353 1 0.279928 0.668846 0.123848
2 1 0.372413 0.532936 0.0498325
722 1 0.288992 0.561792 0.178518
544 1 0.376348 0.684069 0.072698
739 1 0.448548 0.509832 0.0113499
1632 1 0.353553 0.679046 0.162498
1025 1 0.460232 0.57565 0.154318
368 1 0.312286 0.636572 0.0583307
354 1 0.312366 0.637128 0.223266
1109 1 0.439664 0.640518 0.0208526
1269 1 0.396256 0.712664 0.239656
776 1 0.394446 0.618666 0.204463
1536 1 0.406573 0.724803 0.130691
366 1 0.300829 0.566435 0.0159039
96 1 0.431173 0.54887 0.230809
1537 1 0.496302 0.585975 0.0127409
595 1 0.299015 0.509957 0.237896
678 1 0.337713 0.498958 0.115011
699 1 0.427919 0.650456 0.351863
959 1 0.44982 0.605112 0.467562
1286 1 0.343147 0.513721 0.320382
1231 1 0.425096 0.535994 0.310136
1000 1 0.467638 0.675229 0.271348
1829 1 0.36209 0.605309 0.340895
1995 1 0.25373 0.544712 0.454562
1239 1 0.387577 0.620736 0.412728
177 1 0.361974 0.66066 0.285182
478 1 0.419543 0.610543 0.284662
168 1 0.382507 0.56117 0.465856
1869 1 0.317634 0.709686 0.451647
1113 1 0.282751 0.62913 0.38485
203 1 0.30828 0.557149 0.398686
1483 1 0.322924 0.613737 0.452573
145 1 0.461907 0.579456 0.390804
1135 1 0.391977 0.678196 0.47327
1591 1 0.445089 0.514514 0.445474
1215 1 0.391075 0.520591 0.391483
460 1 0.284545 0.577156 0.310437
421 1 0.289066 0.668021 0.31408
1045 1 0.44758 0.715931 0.41748
1671 1 0.264643 0.716032 0.390132
423 1 0.346041 0.681629 0.382804
1624 1 0.345886 0.572682 0.265968
1594 1 0.487499 0.704848 0.339072
1290 1 0.465297 0.740982 0.497681
502 1 0.497799 0.620412 0.319619
1979 1 0.327688 0.741284 0.309211
555 1 0.259 0.606544 0.49872
30 1 0.349786 0.638908 0.592126
1998 1 0.334982 0.609063 0.746277
481 1 0.360192 0.727602 0.528113
212 1 0.459023 0.597223 0.628981
1372 1 0.298147 0.634027 0.671867
149 1 0.412579 0.609547 0.723997
1855 1 0.366739 0.680001 0.668202
1651 1 0.306882 0.696464 0.72808
1897 1 0.428104 0.682838 0.542936
1308 1 0.427183 0.695263 0.619261
535 1 0.494134 0.667626 0.496144
432 1 0.390694 0.569671 0.575501
1338 1 0.373711 0.598218 0.654619
1756 1 0.460182 0.599664 0.544798
1037 1 0.431225 0.533554 0.521515
1529 1 0.366874 0.619595 0.52027
1790 1 0.501103 0.602335 0.710154
464 1 0.483647 0.531999 0.589432
351 1 0.364375 0.542683 0.707646
785 1 0.2719 0.652711 0.592962
588 1 0.298536 0.669934 0.519695
1057 1 0.407794 0.515923 0.630702
1241 1 0.283427 0.538746 0.708926
1049 1 0.446138 0.536487 0.699343
190 1 0.303857 0.574681 0.606732
999 1 0.440506 0.687127 0.6961
1741 1 0.320427 0.713545 0.604088
1152 1 0.497053 0.745801 0.570912
1906 1 0.322642 0.552875 0.513986
1299 1 0.48701 0.74251 0.718708
1116 1 0.332504 0.507947 0.642289
1332 1 0.25191 0.520018 0.63155
726 1 0.278835 0.678336 0.873159
1611 1 0.323565 0.53933 0.811935
195 1 0.325136 0.605362 0.853646
579 1 0.359315 0.694297 0.847232
1446 1 0.336199 0.711989 0.916143
1036 1 0.25334 0.734104 0.812649
1970 1 0.366613 0.613284 1.00078
1924 1 0.427047 0.729255 0.809367
1464 1 0.38766 0.597266 0.79743
2012 1 0.269033 0.731589 0.975026
1684 1 0.441415 0.503192 0.934113
706 1 0.374797 0.620192 0.922421
308 1 0.378395 0.537878 0.971938
1951 1 0.444133 0.580324 0.94962
676 1 0.337199 0.741734 0.788603
1334 1 0.375364 0.67504 0.767408
504 1 0.431701 0.577743 0.863872
1744 1 0.423533 0.654563 0.83651
1114 1 0.474943 0.651034 0.950891
1067 1 0.302988 0.663397 0.803756
228 1 0.435929 0.719428 0.898865
1635 1 0.319099 0.570431 0.939435
532 1 0.468858 0.676241 0.769267
1497 1 0.493766 0.516733 0.762785