ITEM: TIMESTEP
100000
ITEM: NUMBER OF ATOMS
2048
ITEM: BOX BOUNDS pp pp pp
0.0000000000000000e+00 1.3679807573413575e+01
0.0000000000000000e+00 1.3679807573413575e+01
0.0000000000000000e+00 1.3679807573413575e+01
ITEM: ATOMS id type xs ys zs
233 1 0.0683131 0.163633 0.0115132
1491 1 0.0671393 0.023292 0.0509286
224 1 0.137715 0.147194 0.096638
669 1 0.124616 0.108075 0.0352073
599 1 0.152898 0.230258 0.208355
850 1 0.123715 0.159082 0.191186
1332 1 0.0569315 0.0155094 0.129789
1113 1 0.0700533 0.113965 0.239652
1632 1 0.108744 0.207563 0.057879
465 1 0.23201 0.131854 0.21316
1493 1 0.0424913 0.223923 0.0534326
419 1 0.191829 0.0125351 0.114823
1874 1 0.00223396 0.0190342 0.211748
128 1 0.0342203 0.150556 0.181378
1060 1 0.0458213 0.0862394 0.0213467
1306 1 0.00692575 0.131859 0.0513473
1433 1 0.0562176 0.0863426 0.109496
1680 1 0.225247 0.143675 0.139674
519 1 0.21144 0.162952 0.071382
1143 1 0.174794 0.202554 0.151028
1838 1 0.149534 0.019651 0.0605604
1162 1 0.17975 0.0860521 0.0988964
85 1 0.0578525 0.210529 0.244068
1068 1 0.119785 0.0523118 0.117442
2007 1 0.0708368 0.169175 0.113294
124 1 0.172097 0.0923294 0.191472
1528 1 0.195294 0.0266441 0.181852
221 1 0.107128 0.034878 0.203044
508 1 0.179772 0.216173 0.0405032
263 1 0.229181 0.0348182 0.0560413
2025 1 0.244266 0.238226 0.225668
1482 1 0.214786 0.0477881 0.467632
1514 1 0.202536 0.152574 0.408853
153 1 0.245447 0.19501 0.318966
1804 1 0.134219 0.144087 0.459052
322 1 0.1003 0.00549251 0.355991
630 1 0.0932706 0.0213518 0.428464
1399 1 0.0324144 0.069236 0.431504
1048 1 0.0879884 0.249326 0.389563
535 1 0.116641 0.14059 0.329634
1392 1 0.138389 0.0512607 0.47818
57 1 0.0368645 0.0247859 0.377365
107 1 0.0612528 0.147152 0.424602
1663 1 0.0485817 0.0944519 0.497646
1258 1 0.0476288 0.100959 0.344611
765 1 0.218686 0.0745011 0.39362
805 1 0.178544 0.207985 0.357231
206 1 0.109768 0.221771 0.470476
1028 1 0.191915 0.192821 0.257487
1280 1 0.197865 0.219205 0.434328
351 1 0.103082 0.0961128 0.409019
1127 1 0.150139 0.100378 0.256083
684 1 0.12485 0.180291 0.399224
1198 1 0.222703 0.0411747 0.322844
1328 1 0.192828 0.117992 0.319567
1597 1 0.123315 0.188554 0.265564
2033 1 0.0945246 0.0513013 0.284162
416 1 0.243096 0.206302 0.487814
1386 1 0.0466721 0.177208 0.311882
1693 1 0.165562 0.0328405 0.370836
1757 1 0.0271043 0.227082 0.485687
1928 1 0.0949264 0.234722 0.305568
1444 1 0.251088 0.010586 0.407304
489 1 0.0229043 0.0485044 0.29427
331 1 0.000242964 0.128425 0.396375
173 1 0.0279763 0.232935 0.350685
1831 1 0.158397 0.0135674 0.301484
180 1 0.0728528 0.0279712 0.496494
1502 1 0.0158547 0.124354 0.587251
47 1 0.0667659 0.0724134 0.570109
1450 1 0.0135702 0.155652 0.685653
1290 1 0.23113 0.140029 0.518472
40 1 0.211875 0.211815 0.563376
1150 1 0.119099 0.00391082 0.686264
182 1 0.0216552 0.086496 0.649046
1692 1 0.188948 0.0496591 0.686223
875 1 0.248037 0.223505 0.713635
1950 1 0.061596 0.0144428 0.644665
943 1 0.207565 0.151362 0.593816
1803 1 0.122009 0.221986 0.610769
1920 1 0.1126 0.0773567 0.654701
789 1 0.0758479 0.131826 0.629518
409 1 0.0220502 0.0390836 0.721456
784 1 0.19814 0.226189 0.651066
1203 1 0.247215 0.0957697 0.580598
2012 1 0.188227 0.0678953 0.538825
1577 1 0.136049 0.0220022 0.615429
884 1 0.155076 0.159166 0.646988
873 1 0.215053 0.144544 0.740124
479 1 0.12164 0.137798 0.574045
1227 1 0.186007 0.0738518 0.617566
1059 1 0.0359112 0.198595 0.554275
445 1 0.0997462 0.158697 0.690158
1848 1 0.152739 0.179038 0.524238
1676 1 0.15728 0.117347 0.71198
1724 1 0.0636814 0.221078 0.667206
835 1 0.00278414 0.0704202 0.856482
2026 1 0.0200027 0.215946 0.975009
323 1 0.196508 0.0799988 0.776408
1823 1 0.250905 0.117743 0.87303
2030 1 0.0871305 0.234831 0.998507
148 1 0.0838376 0.105478 0.966784
1071 1 0.059166 0.045014 0.908088
534 1 0.0759118 0.151908 0.761885
237 1 0.225554 0.0353399 0.889115
506 1 0.152637 0.226276 0.864684
396 1 0.00497689 0.171024 0.8308
234 1 0.212089 0.188604 0.980899
1651 1 0.047724 0.157742 0.925492
944 1 0.183859 0.247664 0.926034
1648 1 0.243993 0.0293493 0.815046
1967 1 0.12263 0.184414 0.955692
238 1 0.239795 0.203117 0.808246
1075 1 0.156256 0.085594 0.852211
303 1 0.0785408 0.118751 0.857321
7 1 0.0804536 0.223716 0.908499
1382 1 0.14985 0.148048 0.816113
650 1 0.115438 0.0882252 0.775618
29 1 0.187925 0.161616 0.884542
1659 1 0.232493 0.0370705 0.972184
595 1 0.0663623 0.208512 0.831805
364 1 0.144973 0.214759 0.792006
1815 1 0.0402849 0.0918901 0.775684
422 1 0.168566 0.112932 0.932558
1847 1 0.143914 0.0490276 0.910888
2011 1 0.209585 0.250391 0.765602
776 1 0.192999 0.100682 1.0007
413 1 0.184356 -0.00344556 0.824566
389 1 0.107299 0.0269259 0.840898
786 1 0.147624 0.0180946 0.974436
1309 1 0.0460732 0.0172422 0.972041
1329 1 -0.000824546 0.249459 0.816612
2018 1 0.0130887 0.0125192 0.819926
1174 1 0.143839 0.0266699 0.757467
183 1 0.0837844 0.490333 0.233417
1797 1 0.134147 0.321189 0.228419
750 1 0.160863 0.485481 0.0135027
393 1 0.0114102 0.362826 0.0243995
1061 1 0.0600265 0.327459 0.17596
2044 1 0.0818575 0.500542 0.00118246
495 1 0.171988 0.308876 0.0291448
922 1 0.163283 0.469988 0.229401
604 1 0.223039 0.476474 0.0906278
512 1 0.0335403 0.450817 0.166222
682 1 0.102147 0.387841 0.185782
219 1 0.139965 0.304221 0.152967
1536 1 0.1337 0.397243 0.0210846
1901 1 0.106185 0.28076 0.0736851
1207 1 0.103483 0.354892 0.113393
1314 1 0.0807561 0.267227 0.146851
1334 1 0.124131 0.433694 0.0829688
1911 1 0.170235 0.386284 0.216618
1691 1 0.00156378 0.255632 0.123857
1710 1 0.231603 0.450066 0.0202152
421 1 0.0398909 0.384119 0.131451
1922 1 0.0748385 0.483205 0.104928
1548 1 0.120594 0.459653 0.157036
2001 1 0.0478484 0.429656 0.0627975
1819 1 0.206611 0.308646 0.119082
2015 1 0.180386 0.392301 0.0885899
1532 1 0.200982 0.306571 0.190565
356 1 0.0222435 0.32365 0.0957559
1157 1 0.2247 0.445497 0.192458
1458 1 0.0370472 0.267939 0.205295
403 1 0.148715 0.499863 0.0991102
1102 1 0.0963725 0.376023 0.431786
314 1 0.254741 0.404582 0.472603
1273 1 0.156287 0.463273 0.369678
482 1 0.166218 0.355413 0.436107
1956 1 0.230811 0.3193 0.28336
664 1 0.0742155 0.420629 0.491555
1167 1 0.193099 0.397716 0.382777
547 1 0.222297 0.406889 0.263881
1017 1 0.122614 0.400935 0.262394
17 1 0.150606 0.439256 0.436925
1066 1 0.0635186 0.307808 0.272336
1644 1 0.233208 0.439203 0.339123
515 1 0.0356603 0.371286 0.276403
392 1 0.177759 0.319599 0.374726
1419 1 0.112357 0.309985 0.409331
164 1 0.0150133 0.3114 0.358297
194 1 0.0746903 0.447572 0.30751
1452 1 0.0537523 0.294472 0.454713
274 1 0.165319 0.258867 0.286695
915 1 0.132685 0.296397 0.47541
451 1 0.206088 0.286157 0.453323
414 1 0.157967 0.405128 0.324896
538 1 0.142441 0.471963 0.298592
239 1 0.0923805 0.498502 0.373037
1766 1 0.129465 0.335023 0.297351
1979 1 0.077811 0.371377 0.356205
855 1 0.229461 0.461779 0.428256
1168 1 0.0534536 0.431612 0.391429
1 1 0.213346 0.267677 0.340575
1405 1 0.0206295 0.375319 0.431854
427 1 0.129277 0.364064 0.49933
991 1 0.138814 0.267743 0.73629
1616 1 0.191131 0.414822 0.505751
1003 1 0.0167357 0.321525 0.664889
679 1 0.103535 0.279892 0.648003
384 1 0.0155957 0.351619 0.595523
666 1 0.104143 0.452286 0.675584
1664 1 0.0997784 0.412587 0.5643
122 1 0.16862 0.391934 0.712059
418 1 0.0550521 0.433499 0.617907
1685 1 0.181104 0.309814 0.67587
491 1 0.252 0.467138 0.616777
674 1 0.0584344 0.286326 0.597517
99 1 0.114926 0.335791 0.586336
395 1 0.212216 0.300107 0.532506
1240 1 0.13949 0.407381 0.628258
1700 1 0.15926 0.282472 0.607143
696 1 0.101039 0.339627 0.726351
1572 1 0.200116 0.500837 0.696288
455 1 0.244329 0.380762 0.538755
1200 1 0.245848 0.392287 0.689957
59 1 0.142298 0.263716 0.540711
1562 1 0.0741225 0.373837 0.659351
1930 1 0.154661 0.460541 0.559805
1374 1 0.198163 0.339812 0.593323
1133 1 0.0697815 0.47316 0.563772
990 1 0.0223551 0.38276 0.713739
316 1 0.00191344 0.305502 0.735238
276 1 0.033312 0.456217 0.683165
117 1 0.0362685 0.300668 0.523175
306 1 0.241468 0.395151 0.621648
828 1 0.234688 0.280826 0.614384
1317 1 0.066323 0.485655 0.737751
1463 1 0.0648383 0.312055 0.783725
381 1 0.103178 0.327119 0.864992
487 1 0.0160489 0.372714 0.847633
532 1 0.134798 0.382592 0.904692
1388 1 0.131846 0.460229 0.830614
1278 1 0.238048 0.375356 0.805102
1081 1 0.0514552 0.248557 0.759241
198 1 0.0791756 0.323808 0.991621
408 1 0.0963657 0.43873 0.946502
874 1 0.0644993 0.362673 0.926244
529 1 0.100017 0.39392 0.836531
460 1 0.0598874 0.436277 0.882131
785 1 0.232269 0.446195 0.75153
683 1 0.171994 0.444799 0.892186
1591 1 0.159407 0.285315 0.826716
1709 1 0.182993 0.417463 0.956574
1893 1 0.0359848 0.430835 0.808355
1989 1 0.067817 0.391237 0.994248
297 1 0.2126 0.326516 0.870845
1052 1 0.197519 0.487501 0.837005
372 1 0.0361543 0.278143 0.940666
1793 1 0.237004 0.349445 0.933742
1637 1 0.155829 0.313287 0.932792
752 1 0.222354 0.280021 0.97966
1076 1 0.114456 0.408431 0.769746
1877 1 0.203968 0.364998 0.996172
957 1 0.0489987 0.27121 0.867898
1395 1 0.245167 0.445716 0.880918
1022 1 0.214438 0.327253 0.755164
951 1 0.138234 0.347964 0.801107
300 1 0.0748811 0.709163 0.0349493
2 1 0.14709 0.546718 0.216089
1268 1 0.176719 0.571792 0.111722
2021 1 0.0837374 0.574684 0.244405
751 1 0.0824345 0.679477 0.237667
794 1 0.0901056 0.627543 0.0830704
165 1 0.00921934 0.664763 0.152421
315 1 0.096562 0.701404 0.112913
1656 1 0.0658396 0.618296 0.164533
1527 1 0.218478 0.610735 0.206635
1274 1 0.139952 0.683767 0.187032
651 1 0.0132771 0.599513 0.218295
254 1 0.234913 0.557948 0.0122563
1299 1 0.0458471 0.739892 0.215559
1208 1 0.157655 0.641818 0.131756
1997 1 0.0240809 0.533375 0.176598
1595 1 0.238037 0.52427 0.189665
593 1 0.0172853 0.657865 0.0583439
749 1 0.209497 0.721041 0.106481
371 1 0.157615 0.569724 0.0263056
1456 1 0.113573 0.545319 0.151444
118 1 0.238586 0.736828 0.228946
1014 1 0.141335 0.673066 0.052124
676 1 0.140824 0.616408 0.214121
1794 1 -0.00242042 0.664071 0.234338
890 1 0.0459218 0.537826 0.0587913
844 1 0.00362368 0.600135 0.124788
686 1 0.247019 0.590455 0.132707
590 1 0.221619 0.616142 0.0638402
1678 1 0.234105 0.722444 0.016173
253 1 0.212032 0.690942 0.184122
1941 1 0.0319363 0.66981 0.493193
83 1 0.132213 0.569183 0.344385
1976 1 0.198171 0.697019 0.320535
475 1 0.0102074 0.533839 0.266158
1667 1 0.0336478 0.624937 0.304534
530 1 0.244862 0.592027 0.380237
1093 1 0.0790269 0.633702 0.361738
1394 1 0.176734 0.615126 0.421706
376 1 0.245441 0.515335 0.274509
1020 1 0.0796632 0.673825 0.425266
1345 1 0.192874 0.533293 0.354375
2039 1 0.245645 0.672862 0.262948
895 1 0.0218704 0.502425 0.39078
1210 1 0.0631418 0.733517 0.378808
842 1 0.194845 0.596026 0.272212
602 1 0.143078 0.653485 0.271597
127 1 0.0964448 0.574209 0.423092
993 1 0.0952112 0.523958 0.307339
367 1 0.130685 0.729364 0.440158
193 1 0.140616 0.687659 0.379212
499 1 0.241437 0.669718 0.402239
1808 1 0.16815 0.633175 0.345618
3 1 0.212026 0.542397 0.421453
211 1 0.016515 0.64193 0.42286
1225 1 0.10615 0.71247 0.301163
1086 1 0.045216 0.605086 0.474304
1984 1 0.0236705 0.576352 0.37695
484 1 0.188871 0.654487 0.478704
924 1 0.0352153 0.533285 0.453081
420 1 0.109187 0.496307 0.449375
108 1 0.0242875 0.721135 0.435103
488 1 0.25115 0.740863 0.346405
832 1 0.169693 0.71952 0.253169
577 1 0.19654 0.702533 0.549394
88 1 0.0915248 0.539073 0.520936
584 1 0.163206 0.642746 0.567646
1346 1 0.22643 0.590795 0.540549
645 1 0.100478 0.671098 0.510868
225 1 0.0155979 0.50529 0.591902
1379 1 0.171572 0.681599 0.699258
2008 1 0.0808918 0.605577 0.652173
1853 1 0.174524 0.581426 0.596587
936 1 0.0630821 0.733096 0.50116
84 1 0.0939223 0.673856 0.70977
1262 1 0.0244574 0.682567 0.744091
811 1 0.020594 0.586795 0.617847
517 1 0.211287 0.611184 0.719529
199 1 0.143471 0.603953 0.701578
1816 1 0.196225 0.707376 0.624644
860 1 0.0868053 0.608611 0.564418
1402 1 0.229343 0.554523 0.651919
1161 1 0.0744545 0.725861 0.653028
929 1 0.00793426 0.606488 0.729269
12 1 0.208204 0.630981 0.644366
1881 1 0.0688955 0.711338 0.580242
1933 1 0.16665 0.504382 0.6112
1520 1 0.120216 0.677364 0.638035
275 1 0.141294 0.739531 0.513015
463 1 0.0818092 0.548929 0.597483
708 1 0.134582 0.532383 0.67289
1416 1 0.0279493 0.530803 0.665298
1438 1 0.0665458 0.557007 0.721452
229 1 0.0103662 0.664315 0.666813
1504 1 0.145961 0.581168 0.524931
1067 1 0.0218158 0.658677 0.563037
1479 1 0.131956 0.739042 0.584759
1177 1 0.237701 0.528319 0.502019
1182 1 0.158255 0.511882 0.500248
111 1 0.180568 0.532183 0.96306
1751 1 0.147986 0.565409 0.906465
1734 1 0.0786827 0.649674 0.988363
1215 1 0.0788962 0.571312 0.873639
1259 1 0.0630799 0.713911 0.950817
1175 1 0.10917 0.747409 0.89564
1454 1 0.120656 0.587696 0.785839
942 1 0.169413 0.704468 0.988499
1165 1 0.0512211 0.659679 0.885392
1697 1 0.0709864 0.652132 0.779323
438 1 0.112623 0.644527 0.923343
1903 1 0.0333686 0.5076 0.920337
1367 1 0.111658 0.588049 0.966898
1349 1 0.205176 0.658239 0.862527
2022 1 0.142229 0.651151 0.760968
67 1 0.135602 0.691175 0.836225
1446 1 0.241622 0.63908 0.803242
640 1 0.0044521 0.507753 0.991424
79 1 0.151637 0.615154 0.843621
940 1 0.058349 0.704118 0.830832
44 1 0.18311 0.712337 0.912809
1121 1 0.146158 0.539431 0.829111
1226 1 0.00213055 0.644288 0.940821
907 1 0.0767234 0.508843 0.838818
896 1 0.0443819 0.571342 0.954562
1222 1 0.0538078 0.553721 0.790413
1978 1 0.210884 0.517991 0.771446
671 1 0.194026 0.698314 0.787417
994 1 0.212489 0.607522 0.921362
1248 1 0.212207 0.545588 0.872422
935 1 0.212478 0.628511 0.987561
1985 1 0.108154 0.504478 0.91694
806 1 0.14315 0.506695 0.757027
1488 1 0.181405 0.947429 0.0815203
167 1 0.206236 0.950388 0.187592
657 1 0.0109509 0.898879 0.191058
476 1 0.173474 0.773683 0.196822
1779 1 0.207458 0.867127 0.184173
1018 1 0.2368 0.809455 0.228324
1560 1 0.162013 0.98727 0.233793
2010 1 0.0506415 0.957199 0.180358
585 1 0.15167 0.767709 0.113572
1583 1 0.14997 0.885359 0.220205
35 1 0.217447 0.79895 0.138084
1421 1 0.16159 0.855621 0.0793782
429 1 0.110838 0.928863 0.0803243
1830 1 0.0775993 0.764282 0.0835972
1469 1 0.0447623 0.871231 0.0476197
985 1 0.101977 0.91268 0.151592
1621 1 0.0357375 0.93318 0.113115
133 1 0.121877 0.890318 0.0230546
1383 1 0.215865 0.794126 0.0644491
226 1 0.0965394 0.829986 0.0738041
1129 1 0.0757158 0.790424 0.167745
1551 1 0.227739 0.918573 0.122595
1021 1 0.133841 0.840615 0.143137
1442 1 0.0529605 0.85429 0.135663
1271 1 0.140744 0.987568 0.159742
771 1 0.0102377 0.958087 0.037166
66 1 0.081924 0.96193 0.0209672
497 1 0.218032 0.947126 0.0147405
722 1 0.133962 0.762513 0.0365828
1176 1 0.00750452 0.771698 0.166906
1934 1 0.0106082 0.813129 0.0932012
992 1 0.242484 0.909887 0.230747
404 1 0.116378 0.764378 0.242241
1970 1 0.0655643 0.827058 0.244054
622 1 0.0520416 0.844963 0.397433
1338 1 0.194871 0.884788 0.439518
573 1 0.152466 0.940199 0.398118
196 1 0.238962 0.947883 0.444649
72 1 0.0237288 0.755316 0.283813
1387 1 0.0785627 0.792476 0.324178
171 1 0.208809 0.933262 0.34207
113 1 0.226793 0.836815 0.359894
474 1 0.00843818 0.817194 0.311509
931 1 0.086386 0.898701 0.250776
326 1 0.121259 0.798792 0.470165
150 1 0.122459 0.808391 0.403003
1524 1 0.107452 0.878672 0.432078
1245 1 0.165133 0.861139 0.377336
1827 1 0.21185 0.751827 0.444531
1618 1 0.0331078 0.885909 0.304647
346 1 0.155872 0.767779 0.345667
223 1 0.144543 0.931335 0.27895
1925 1 0.0129866 0.785437 0.380922
197 1 0.0216801 0.793191 0.456573
328 1 0.0178175 0.963361 0.317612
938 1 0.190445 0.849036 0.273766
288 1 0.135892 0.841335 0.314133
596 1 0.0617543 0.956387 0.408016
2017 1 0.0978653 0.90997 0.348806
1748 1 0.194523 0.822808 0.490604
1647 1 0.220057 0.778541 0.29015
1515 1 0.0269998 0.884753 0.450572
687 1 0.176732 0.9886 0.449941
1443 1 0.0887872 0.977761 0.258128
461 1 0.156063 0.929461 0.48394
11 1 0.0217 0.995415 0.449164
1883 1 0.221224 0.781441 0.543103
1588 1 0.0110413 0.756484 0.587644
1485 1 0.149559 0.856969 0.711193
1960 1 0.0940474 0.917124 0.581157
1590 1 0.0927322 0.875548 0.670925
1871 1 0.0125576 0.87101 0.55238
918 1 0.144154 0.818859 0.539709
1627 1 0.23253 0.981138 0.734059
1428 1 0.0522328 0.937763 0.704083
218 1 0.191222 0.872195 0.543975
1441 1 0.0120701 1.00098 0.527957
2045 1 0.0522524 0.76723 0.728331
1440 1 0.187373 0.793924 0.62806
335 1 0.133605 0.933902 0.660712
1740 1 0.16088 0.935539 0.584006
1850 1 0.134002 0.788384 0.680589
566 1 0.231545 0.895915 0.699306
1921 1 0.0191152 0.959338 0.596253
1940 1 0.202327 0.989501 0.562082
353 1 0.065636 0.817826 0.571185
1612 1 0.243218 0.929942 0.544107
1522 1 0.055504 0.856785 0.733106
195 1 0.120866 0.857897 0.607379
358 1 0.063255 0.952216 0.513501
86 1 0.0673402 0.808389 0.664431
1973 1 0.191519 0.978348 0.645781
893 1 0.0412713 0.88552 0.62422
1357 1 0.226214 0.853866 0.633432
1719 1 0.212135 0.817885 0.700283
1045 1 0.0104453 0.751144 0.666332
338 1 0.0945492 0.877431 0.516312
486 1 0.107295 0.992079 0.554999
1880 1 0.16853 0.922182 0.74409
2006 1 -0.000303222 0.971329 0.664663
782 1 0.104504 0.976105 0.791905
1620 1 0.209437 0.861909 0.988321
539 1 0.0352599 0.956693 0.780426
763 1 0.195228 0.869051 0.825653
792 1 0.235541 0.82294 0.870684
1073 1 0.00230009 0.808147 0.784709
1999 1 0.138293 0.763003 0.961182
423 1 0.111541 0.836841 0.778997
178 1 0.0592854 0.975362 0.870442
411 1 0.0421626 0.857201 0.975879
1730 1 0.0647864 0.796085 0.9232
163 1 0.0366027 0.880515 0.886172
1777 1 0.214456 0.814955 0.785453
1053 1 0.0503938 0.93518 0.940863
1297 1 0.206536 0.783125 0.938043
1034 1 0.210172 0.900034 0.930888
480 1 0.105878 0.88057 0.91127
1965 1 0.0740998 0.786514 1.00202
1660 1 0.0698555 0.909587 0.827876
698 1 0.120149 0.983822 0.904742
1545 1 0.163083 0.832691 0.896543
1393 1 0.0870537 0.840967 0.849476
343 1 0.153848 0.826033 0.978345
1072 1 0.1376 0.906744 0.813386
2029 1 0.219686 0.932281 0.790671
159 1 0.113083 0.924913 0.96698
1546 1 0.10042 0.771892 0.821918
483 1 0.225555 0.974708 0.931034
1010 1 0.0225905 0.768649 0.85036
755 1 0.168725 0.930591 0.877758
1303 1 0.200147 0.754593 0.843356
268 1 -0.000198457 0.884002 0.798503
2046 1 0.0931104 0.91233 0.7616
1622 1 0.142629 0.757755 0.753526
557 1 0.265748 0.0143856 0.128139
1342 1 0.380438 0.0703933 0.101319
98 1 0.314346 0.0522885 0.0758978
1266 1 0.411705 0.109704 0.232525
542 1 0.490292 0.0533971 0.0727771
549 1 0.477219 0.0564072 0.206768
1576 1 0.471012 0.128178 0.0207335
281 1 0.393369 0.24328 0.0929419
551 1 0.319495 0.169685 0.20502
894 1 0.386796 0.151869 0.132046
955 1 0.348284 0.0722282 0.246636
1256 1 0.264859 0.103646 0.0659058
571 1 0.368156 0.013923 0.0400349
1160 1 0.30057 0.155306 0.138809
788 1 0.415483 0.130462 0.0598
2042 1 0.462831 0.144882 0.204292
2020 1 0.35418 0.212902 0.0304222
1988 1 0.374829 0.0900824 0.169811
819 1 0.442545 0.218297 0.148324
713 1 0.348016 0.221678 0.247377
1050 1 0.331013 0.135446 0.0573986
378 1 0.271002 0.163095 0.00935932
1584 1 0.251501 0.218642 0.151223
1625 1 0.307393 0.214403 0.101072
1235 1 0.300699 0.0777121 0.142835
648 1 0.392962 0.182595 0.199119
1860 1 0.268273 0.240282 0.0279778
927 1 0.425114 0.204217 0.0396387
104 1 0.483683 0.156202 0.131952
2004 1 0.270359 0.0539955 0.204501
1745 1 0.405402 0.0249115 0.160909
1945 1 0.476625 0.24303 0.0841695
139 1 0.412962 0.055233 0.346222
1567 1 0.284346 0.121974 0.268407
1805 1 0.443767 0.0510308 0.415087
92 1 0.372737 0.0602845 0.485722
1840 1 0.481696 0.0894566 0.269194
22 1 0.320059 0.179863 0.301654
989 1 0.299684 0.120776 0.401719
1239 1 0.412671 0.195559 0.438446
1064 1 0.352417 0.149751 0.456914
1233 1 0.348156 0.0930202 0.340754
93 1 0.432611 0.2092 0.363335
1839 1 0.348386 0.200924 0.382977
834 1 0.275722 0.202505 0.380814
1147 1 0.408948 0.0469658 0.263685
1474 1 0.324286 0.230881 0.442697
1462 1 0.293481 0.0510412 0.306059
1954 1 0.409345 0.00192024 0.462818
1069 1 0.480347 0.144386 0.334764
1158 1 0.338533 0.0210886 0.436836
1624 1 0.290354 0.0731555 0.459048
1362 1 0.296486 0.0528423 0.377263
1085 1 0.431482 0.121278 0.470061
1070 1 0.413691 0.123294 0.308982
661 1 0.263142 0.121337 0.334346
1870 1 0.368482 0.08924 0.410533
730 1 0.468415 0.211316 0.257906
1510 1 0.405153 0.183232 0.270377
1019 1 0.413628 0.186802 0.675838
1732 1 0.36609 0.161593 0.746454
1396 1 0.288925 0.136292 0.729976
923 1 0.338942 0.195241 0.686701
1854 1 0.25339 0.0773148 0.726707
1593 1 0.454729 0.188783 0.527407
449 1 0.29091 0.00385515 0.699301
2038 1 0.397774 0.210738 0.586799
1875 1 0.445282 0.0772143 0.660615
1604 1 0.265419 0.026678 0.55015
1712 1 0.400305 0.0203534 0.634219
1607 1 0.470279 0.215096 0.600257
623 1 0.374641 0.0271568 0.721595
1291 1 0.392078 0.100242 0.602942
840 1 0.333603 0.0780136 0.692422
652 1 0.29145 0.0322709 0.629375
1090 1 0.401959 0.0367459 0.55908
1080 1 0.315915 0.110376 0.60647
556 1 0.26136 0.122961 0.651189
1994 1 0.477802 0.137117 0.687433
296 1 0.455059 0.00476472 0.677065
1533 1 0.493135 0.118489 0.526011
443 1 0.360281 0.189126 0.510754
1414 1 0.2794 0.197452 0.568811
945 1 0.420723 0.116066 0.737898
740 1 0.330986 0.0528169 0.552587
1434 1 0.41977 0.125083 0.547274
1987 1 0.302112 0.135163 0.50188
997 1 0.466286 0.0385346 0.600674
1046 1 0.486315 0.215047 0.6776
1640 1 0.274788 0.202728 0.650759
1801 1 0.387184 0.226427 0.73807
897 1 0.343045 0.251272 0.552006
616 1 0.443795 0.0523681 0.503024
1036 1 0.399554 0.190966 0.798782
265 1 0.406261 0.178052 0.965913
42 1 0.328438 0.0293113 0.868738
504 1 0.443866 0.123086 0.815729
838 1 0.275197 0.0963954 0.808559
175 1 0.287476 0.195878 0.881294
1792 1 0.367819 0.080766 0.91297
481 1 0.304993 0.0339972 0.765497
769 1 0.380131 0.0575799 0.810926
1213 1 0.46082 0.0415937 0.991124
947 1 0.308882 0.193429 0.783697
510 1 0.353262 0.170955 0.867226
214 1 0.482499 0.0490549 0.804529
768 1 0.485175 0.217617 0.771101
1617 1 0.433835 0.0524182 0.857133
1540 1 0.472586 0.208908 0.991619
1372 1 0.322068 0.106974 0.862177
262 1 0.487185 0.183771 0.92896
1166 1 0.342663 0.147797 0.96499
1898 1 0.265757 0.140379 0.946133
1904 1 0.475358 0.0776314 0.929859
1356 1 0.29783 0.0425387 0.931355
770 1 0.397016 0.0939967 0.989977
1849 1 0.338427 0.229561 0.921346
140 1 0.42573 0.127407 0.894449
1264 1 0.408738 0.198632 0.893291
1885 1 0.357089 0.0383329 0.966613
1032 1 0.338667 0.0993206 0.765682
1511 1 0.279156 0.0861118 0.988055
969 1 0.269259 0.218785 0.949364
1844 1 0.414004 0.251831 0.976761
1312 1 0.429337 0.0141205 0.764671
930 1 0.45496 0.23861 0.834317
954 1 0.27079 0.422317 0.0969077
292 1 0.385233 0.402314 0.00383657
973 1 0.316234 0.498337 0.178616
1033 1 0.35956 0.408726 0.229373
1944 1 0.420961 0.456145 0.139163
1614 1 0.329303 0.429715 0.150028
1645 1 0.421916 0.303586 0.141372
1307 1 0.472712 0.280755 0.228641
1509 1 0.295974 0.445183 0.220834
431 1 0.27662 0.361616 0.215184
1496 1 0.448333 0.384754 0.0484478
1559 1 0.339949 0.359268 0.0438743
278 1 0.435044 0.301038 0.045808
1451 1 0.427405 0.389079 0.19511
1995 1 0.394439 0.371429 0.122113
453 1 0.466835 0.388524 0.128283
971 1 0.490505 0.292324 0.153561
1418 1 0.428981 0.460862 0.0516905
629 1 0.324506 0.285076 0.0446159
1727 1 0.331021 0.446485 0.057535
1326 1 0.283899 0.370859 0.145957
1826 1 0.346167 0.331177 0.177608
31 1 0.387325 0.468437 0.203426
1189 1 0.404571 0.278521 0.229443
1938 1 0.267027 0.32176 0.0715958
345 1 0.272552 0.294353 0.184272
833 1 0.351206 0.307261 0.111562
963 1 0.331507 0.299345 0.248388
643 1 0.500018 0.403449 0.200569
147 1 0.348704 0.256892 0.172789
302 1 0.420776 0.379918 0.395856
1246 1 0.316349 0.485354 0.480325
179 1 0.263173 0.335837 0.469501
869 1 0.478357 0.425128 0.411461
1106 1 0.369818 0.41924 0.463176
352 1 0.369684 0.463159 0.411319
1092 1 0.335899 0.353031 0.447493
797 1 0.359501 0.404844 0.376576
386 1 0.288335 0.393772 0.344687
1633 1 0.382056 0.37018 0.313393
231 1 0.389232 0.268199 0.320131
916 1 0.322965 0.331562 0.310949
294 1 0.495929 0.350147 0.364771
1480 1 0.469959 0.429079 0.343301
879 1 0.458762 0.264981 0.315853
1489 1 0.297492 0.466651 0.315846
1718 1 0.391861 0.454473 0.334854
333 1 0.308176 0.502678 0.412801
430 1 0.482809 0.498077 0.432845
741 1 0.388653 0.475616 0.492934
1397 1 0.278178 0.259898 0.302111
291 1 0.454003 0.338622 0.300836
1884 1 0.341027 0.306254 0.37605
2019 1 0.382768 0.257206 0.481162
1453 1 0.313774 0.407868 0.282636
1787 1 0.48199 0.324292 0.449384
1711 1 0.44744 0.416716 0.495194
851 1 0.364183 0.473734 0.269617
1782 1 0.261105 0.318561 0.397669
135 1 0.387023 0.337444 0.497967
1774 1 0.402627 0.282006 0.400432
1180 1 0.444963 0.418913 0.261401
919 1 0.465518 0.251476 0.484868
1878 1 0.425884 0.409713 0.704717
1243 1 0.295122 0.271142 0.746652
70 1 0.362325 0.361718 0.710266
1599 1 0.41739 0.292949 0.551999
1384 1 0.457131 0.472644 0.581711
852 1 0.317417 0.446548 0.577725
2023 1 0.36212 0.448125 0.704416
282 1 0.437992 0.302182 0.732034
815 1 0.293928 0.352767 0.729592
43 1 0.364854 0.284803 0.623969
1642 1 0.483336 0.455871 0.671613
1409 1 0.303361 0.448875 0.66651
402 1 0.270272 0.334334 0.593702
1962 1 0.473558 0.38339 0.662311
1359 1 0.415808 0.311681 0.665862
1539 1 0.456497 0.345151 0.524682
15 1 0.479645 0.464252 0.743715
1004 1 0.431506 0.346765 0.592944
446 1 0.49512 0.367761 0.739725
279 1 0.302026 0.419942 0.730938
1521 1 0.356987 0.340258 0.566455
525 1 0.318595 0.292796 0.678407
594 1 0.333931 0.374454 0.64349
470 1 0.391265 0.424813 0.551017
767 1 0.323045 0.414288 0.515056
1788 1 0.314589 0.309559 0.51962
1544 1 0.255507 0.458233 0.517992
1775 1 0.379543 0.490092 0.621164
781 1 0.304926 0.366777 0.839248
911 1 0.312921 0.380375 0.908692
365 1 0.287446 0.382437 0.990493
1364 1 0.469782 0.467901 0.907379
1863 1 0.456299 0.309831 0.888013
257 1 0.378745 0.287185 0.919899
1905 1 0.384607 0.385563 0.9149
1946 1 0.344183 0.464953 0.964743
1335 1 0.281834 0.433577 0.943759
701 1 0.349176 0.339814 0.968208
1682 1 0.448729 0.303225 0.800219
1119 1 0.473909 0.433619 0.979487
27 1 0.357765 0.299595 0.77286
1470 1 0.425501 0.321124 0.967348
301 1 0.455391 0.387489 0.875375
647 1 0.467677 0.46648 0.819088
485 1 0.392247 0.447722 0.804167
2048 1 0.301634 0.447926 0.800557
1400 1 0.447473 0.403154 0.782258
1707 1 0.29702 0.274572 0.871088
1887 1 0.379905 0.322025 0.856836
472 1 0.257159 0.296595 0.82003
25 1 0.403268 0.445788 0.882634
1094 1 0.491012 0.28082 0.992272
1738 1 0.496006 0.344656 0.932531
719 1 0.404124 0.489487 0.941024
1729 1 0.320086 0.468679 0.87682
814 1 0.362147 0.380523 0.788446
1948 1 0.289481 0.303568 0.967178
203 1 0.350171 0.251072 0.822741
773 1 0.363466 0.558961 0.230774
1412 1 0.479727 0.694024 0.0741085
1913 1 0.397551 0.525212 0.156764
1220 1 0.289441 0.663867 0.167213
1097 1 0.441953 0.642777 0.0150153
23 1 0.496211 0.596536 0.163196
1835 1 0.41613 0.691703 0.139493
632 1 0.306285 0.577388 0.0333765
1809 1 0.333048 0.719122 0.135943
1646 1 0.356016 0.636591 0.145882
849 1 0.37519 0.52409 0.0842754
75 1 0.462806 0.524541 0.128911
318 1 0.344587 0.690261 0.207233
369 1 0.396697 0.692211 0.0611565
1347 1 0.312819 0.58606 0.113043
1936 1 0.363157 0.616978 0.0522166
1431 1 0.296576 0.591298 0.242809
561 1 0.418958 0.691564 0.216082
1492 1 0.398494 0.624349 0.228864
662 1 0.424686 0.612001 0.162171
996 1 0.433676 0.525654 0.219671
1413 1 0.425983 0.603966 0.0851082
742 1 0.285898 0.736888 0.0696021
1369 1 0.280805 0.650969 0.0956399
1197 1 0.299248 0.647862 0.0191279
1790 1 0.31524 0.570733 0.179204
564 1 0.408127 0.529316 0.019047
822 1 0.480648 0.524371 0.0494135
615 1 0.490258 0.64245 0.235802
1300 1 0.494371 0.725164 0.202888
1628 1 0.282759 0.518189 0.0833359
230 1 0.38396 0.640086 0.372247
820 1 0.295346 0.715126 0.300801
946 1 0.479453 0.660791 0.432859
82 1 0.32401 0.60467 0.386899
503 1 0.261472 0.524168 0.364056
2035 1 0.494227 0.531497 0.369957
466 1 0.441282 0.685071 0.35382
690 1 0.448221 0.564181 0.459789
1688 1 0.414155 0.527594 0.358996
1906 1 0.483479 0.670764 0.299937
212 1 0.407254 0.534194 0.286612
246 1 0.496946 0.745151 0.454183
707 1 0.304652 0.66391 0.4512
119 1 0.37744 0.625034 0.440871
1713 1 0.354457 0.582585 0.303217
1780 1 0.331899 0.642297 0.274253
1430 1 0.317539 0.564241 0.455309
1641 1 0.316673 0.74482 0.37035
1298 1 0.471511 0.503122 0.288207
1044 1 0.41949 0.617432 0.302696
1275 1 0.3178 0.660563 0.3467
1704 1 0.363788 0.735423 0.424603
289 1 0.313035 0.519503 0.2654
1531 1 0.418032 0.692777 0.481151
1056 1 0.260354 0.614617 0.470674
523 1 0.369263 0.699453 0.300257
836 1 0.448724 0.730993 0.267582
948 1 0.335472 0.542757 0.35946
2043 1 0.255821 0.58242 0.306734
979 1 0.4968 0.595452 0.417462
677 1 0.396331 0.606148 0.512022
76 1 0.338408 0.546142 0.562079
1490 1 0.416257 0.543726 0.532482
277 1 0.320178 0.744742 0.644592
704 1 0.476381 0.535808 0.712504
2031 1 0.28867 0.647434 0.673918
1643 1 0.485326 0.708941 0.638177
1008 1 0.399285 0.71343 0.554868
1890 1 0.352535 0.696012 0.690271
1078 1 0.274383 0.674305 0.532929
731 1 0.422183 0.642582 0.570279
1164 1 0.258359 0.680618 0.746
1503 1 0.350485 0.609369 0.63811
501 1 0.448282 0.519383 0.635004
103 1 0.413376 0.730267 0.623384
249 1 0.339414 0.531771 0.706792
1390 1 0.395993 0.578237 0.58963
1983 1 0.317375 0.674782 0.613343
1867 1 0.301589 0.518242 0.636559
299 1 0.265145 0.63372 0.591342
507 1 0.471292 0.711259 0.569737
871 1 0.256855 0.722848 0.591295
1683 1 0.262224 0.545675 0.580227
631 1 0.447767 0.638461 0.653613
1136 1 0.325077 0.629759 0.510102
1483 1 0.267552 0.514047 0.719507
801 1 0.411155 0.570227 0.725961
1926 1 0.413168 0.503251 0.697794
670 1 0.476142 0.646161 0.50122
1728 1 0.327352 0.630596 0.736466
1001 1 0.336925 0.712814 0.502295
1132 1 0.335543 0.747055 0.565481
1668 1 0.26729 0.737308 0.687575
668 1 0.402812 0.642857 0.733104
213 1 0.494707 0.568796 0.583876
1089 1 0.491062 0.646881 0.595144
1623 1 0.506322 0.731888 0.746912
1310 1 0.286731 0.671303 0.868121
1082 1 0.434606 0.543362 0.881047
614 1 0.47898 0.747121 0.819757
1767 1 0.390754 0.667488 0.852568
872 1 0.379259 0.57354 0.9735
864 1 0.319143 0.708261 0.773641
405 1 0.311461 0.638207 0.802455
120 1 0.362727 0.52326 0.878493
1619 1 0.485753 0.586564 0.839352
1879 1 0.381693 0.593625 0.859203
1202 1 0.258538 0.740146 0.882691
256 1 0.28178 0.509631 0.990235
1232 1 0.359566 0.566566 0.785362
360 1 0.342297 0.632818 0.907088
1769 1 0.382159 0.713361 0.985121