ITEM: TIMESTEP
100000
ITEM: NUMBER OF ATOMS
2048
ITEM: BOX BOUNDS pp pp pp
0.0000000000000000e+00 1.1351867295763070e+01
0.0000000000000000e+00 1.1351867295763070e+01
0.0000000000000000e+00 1.1351867295763070e+01
ITEM: ATOMS id type xs ys zs
41 1 0.00044664 0.128924 0.24677
8 1 0.125365 0.0669979 0.0615451
3 1 0.0648863 0.0022859 0.0637151
19 1 0.0638199 0.00649356 0.184747
532 1 0.250941 0.0580391 0.196238
14 1 0.180032 0.181593 0.00568369
33 1 0.00281457 0.00733236 0.24897
32 1 0.126202 0.18583 0.185023
16 1 0.131006 0.183142 0.0744036
18 1 0.0647378 0.0638833 0.12272
24 1 0.125964 0.058697 0.189192
31 1 0.191839 0.115925 0.189327
11 1 0.0586082 0.126412 0.0664156
15 1 0.195052 0.120364 0.067009
30 1 0.194927 0.181631 0.13451
17 1 0.00735289 0.000470795 0.122871
26 1 0.057616 0.194223 0.122863
29 1 0.127069 0.123206 0.129583
22 1 0.185165 0.0561549 0.122903
27 1 0.0641679 0.128632 0.177831
20 1 0.00189755 0.065712 0.183438
524 1 0.24927 0.193756 0.0642288
6 1 0.184764 0.0615051 0.00773061
521 1 0.250352 0.133444 0.0020041
135 1 0.183623 0.247697 0.0699316
151 1 0.190409 0.246312 0.194086
131 1 0.0596278 0.248756 0.0576703
34 1 0.0604114 0.0653781 0.243567
42 1 0.0659186 0.190485 0.244802
10 1 0.0608029 0.188958 0.00249269
13 1 0.120923 0.12277 0.00112275
36 1 0.00275781 0.0697403 0.309358
64 1 0.12741 0.191273 0.443398
177 1 0.00030976 0.245068 0.378255
35 1 0.062297 0.00667817 0.306351
43 1 0.0650325 0.123936 0.315127
47 1 0.191454 0.122571 0.313597
48 1 0.127674 0.184658 0.315069
548 1 0.249308 0.0616645 0.316066
52 1 0.00274964 0.0636601 0.434183
40 1 0.125665 0.0624401 0.317094
54 1 0.187749 0.0617793 0.377652
57 1 0.00530395 0.127975 0.379159
62 1 0.187989 0.193633 0.377393
45 1 0.124776 0.125334 0.250829
163 1 0.0616659 0.244187 0.310274
50 1 0.0698014 0.0605569 0.380304
56 1 0.12643 0.0686852 0.441697
63 1 0.191359 0.13099 0.438267
38 1 0.184849 0.0610385 0.251059
59 1 0.0581761 0.131897 0.442241
61 1 0.124858 0.128193 0.380646
58 1 0.0640583 0.186268 0.371741
49 1 0.00299543 0.00445931 0.370297
66 1 0.0618104 0.0658932 0.497556
553 1 0.247429 0.122908 0.250188
46 1 0.190022 0.188027 0.257736
193 1 0.00781074 0.250787 0.498744
37 1 0.127222 0.00216949 0.256934
604 1 0.249102 0.189574 0.695473
85 1 0.124763 -0.000230275 0.627672
596 1 0.246386 0.0739436 0.682541
75 1 0.0593403 0.126627 0.564227
77 1 0.118048 0.12812 0.503652
81 1 0.000329175 0.00135013 0.625378
87 1 0.18949 0.00378779 0.686523
580 1 0.251043 0.0651403 0.56065
82 1 0.0598592 0.0604221 0.621517
72 1 0.12316 0.0629931 0.563962
86 1 0.187372 0.0665225 0.620975
80 1 0.12807 0.194049 0.561996
79 1 0.186022 0.125903 0.561703
106 1 0.055458 0.185439 0.75136
102 1 0.187546 0.0639524 0.749516
88 1 0.123279 0.0613836 0.690654
96 1 0.120805 0.189484 0.692513
91 1 0.0580833 0.122204 0.689347
93 1 0.118391 0.125451 0.620317
94 1 0.183095 0.187526 0.623283
95 1 0.181371 0.1257 0.68948
90 1 0.0647154 0.190516 0.628005
109 1 0.120237 0.124708 0.746962
74 1 0.0597483 0.184828 0.504542
601 1 0.246915 0.134243 0.626327
577 1 0.240783 0.00264842 0.500083
71 1 0.182481 0.00338448 0.56462
69 1 0.127799 0.00263839 0.500366
78 1 0.189385 0.191658 0.504832
70 1 0.183706 0.0623026 0.505204
133 1 0.124908 0.251394 0.999918
100 1 0.00186335 0.0597313 0.81246
617 1 0.24461 0.129123 0.751985
123 1 0.0608156 0.120824 0.935555
98 1 0.0597 0.0603087 0.748502
124 1 0.00537171 0.188321 0.936498
128 1 0.119517 0.189236 0.94156
636 1 0.247361 0.18887 0.932563
126 1 0.185578 0.188194 0.876916
107 1 0.0615078 0.123975 0.815265
104 1 0.123052 0.063453 0.816352
111 1 0.182845 0.127632 0.817441
127 1 0.189224 0.126941 0.936492
112 1 0.122064 0.186589 0.816716
122 1 0.0632824 0.18642 0.874276
120 1 0.126107 0.0618706 0.939157
114 1 0.0594284 0.0617504 0.873163
118 1 0.184447 0.0636587 0.878579
125 1 0.124789 0.125161 0.881526
119 1 0.18155 0.00255549 0.940835
227 1 0.0589417 0.243614 0.815916
628 1 0.244197 0.0610771 0.945602
612 1 0.244051 0.0604478 0.812242
2 1 0.0636104 0.0608109 0.998929
231 1 0.187334 0.250716 0.81535
633 1 0.243592 0.123206 0.87793
117 1 0.126491 0.00601866 0.879576
625 1 0.247531 0.00317099 0.875862
247 1 0.185292 0.248449 0.942001
110 1 0.180279 0.18891 0.75194
170 1 0.0531026 0.437384 0.250169
159 1 0.181043 0.376252 0.187193
152 1 0.124821 0.310796 0.192263
136 1 0.11995 0.312407 0.059794
149 1 0.122458 0.250913 0.127044
134 1 0.181743 0.316191 0.00273392
275 1 0.0613584 0.499599 0.18606
144 1 0.122235 0.442857 0.0651419
157 1 0.120521 0.380566 0.123819
150 1 0.178213 0.311286 0.128079
130 1 0.0581856 0.317034 0.00211032
158 1 0.182916 0.440087 0.121413
139 1 0.057783 0.38525 0.058916
143 1 0.184224 0.375107 0.0628141
160 1 0.123258 0.43568 0.191489
155 1 0.0644566 0.373686 0.186035
154 1 0.0555216 0.440565 0.126302
147 1 0.0614615 0.254332 0.188047
146 1 0.0638955 0.314905 0.126355
641 1 0.24669 0.257252 0.00185457
681 1 0.244942 0.37893 0.247976
652 1 0.242318 0.438212 0.0612986
279 1 0.191413 0.497419 0.18619
644 1 0.246258 0.315662 0.0659783
668 1 0.248098 0.43641 0.183402
660 1 0.245362 0.316596 0.18895
665 1 0.244143 0.378371 0.126379
263 1 0.185167 0.498657 0.0638111
769 1 0.249007 0.498328 -0.0012171
259 1 0.058545 0.500705 0.0651563
173 1 0.11852 0.375852 0.248413
162 1 0.0588533 0.309089 0.251775
179 1 0.0630844 0.250627 0.435209
175 1 0.182801 0.373778 0.315986
176 1 0.120558 0.432917 0.308711
181 1 0.121932 0.248788 0.374093
305 1 0.00113858 0.502335 0.374489
165 1 0.132835 0.249527 0.256315
187 1 0.0577252 0.376655 0.434739
168 1 0.120784 0.314115 0.311343
171 1 0.0568851 0.375044 0.313979
309 1 0.126099 0.497478 0.374659
190 1 0.189164 0.439634 0.376616
169 1 0.00241762 0.372624 0.254341
178 1 0.0612097 0.30967 0.374493
189 1 0.119741 0.37209 0.374537
182 1 0.185601 0.314968 0.379862
174 1 0.187057 0.439819 0.252239
184 1 0.122251 0.313497 0.435985
191 1 0.186383 0.373762 0.438808
186 1 0.0614671 0.437225 0.377631
192 1 0.124576 0.434092 0.437434
167 1 0.187638 0.259401 0.318353
183 1 0.184996 0.255297 0.440568
676 1 0.248997 0.314247 0.315169
166 1 0.184117 0.317728 0.251717
206 1 0.191671 0.438464 0.495238
697 1 0.244318 0.377287 0.372907
194 1 0.0591323 0.319118 0.497303
213 1 0.126514 0.252214 0.623819
205 1 0.126087 0.380142 0.502765
199 1 0.190171 0.250474 0.565025
216 1 0.119792 0.312158 0.691764
218 1 0.0569502 0.441201 0.624644
215 1 0.188172 0.253625 0.689784
223 1 0.192405 0.373454 0.693478
237 1 0.123161 0.374847 0.750272
200 1 0.124375 0.313799 0.562877
203 1 0.0613186 0.377859 0.567661
207 1 0.193372 0.377641 0.56229
219 1 0.0639022 0.37657 0.688706
208 1 0.125036 0.435681 0.561338
195 1 0.0639217 0.251674 0.56432
222 1 0.18928 0.442074 0.62536
210 1 0.0634629 0.308702 0.626198
224 1 0.125406 0.437487 0.684777
214 1 0.186734 0.310138 0.626778
221 1 0.132041 0.381631 0.622509
323 1 0.0626802 0.498235 0.557439
197 1 0.120629 0.259138 0.500668
211 1 0.0637295 0.252652 0.69147
198 1 0.18814 0.313834 0.504206
732 1 0.248565 0.43846 0.688911
220 1 0.00652439 0.435492 0.690408
196 1 0.00182146 0.31784 0.567154
708 1 0.247717 0.309984 0.570909
729 1 0.243116 0.378189 0.630057
339 1 0.0616242 0.49711 0.687369
341 1 0.121456 0.497518 0.627941
234 1 0.0676403 0.437688 0.749259
202 1 0.0621824 0.43473 0.500846
245 1 0.122429 0.252179 0.874357
764 1 0.239966 0.433029 0.937594
243 1 0.0617729 0.252925 0.93434
232 1 0.12311 0.3151 0.812234
236 1 0.00363442 0.438514 0.806403
748 1 0.248093 0.44013 0.814743
255 1 0.185022 0.371781 0.938985
239 1 0.187848 0.378153 0.81332
240 1 0.129831 0.437691 0.809466
248 1 0.120552 0.315201 0.935646
242 1 0.0636237 0.313799 0.870823
246 1 0.185053 0.311203 0.87427
235 1 0.0549049 0.370299 0.808795
250 1 0.0643716 0.44042 0.874537
254 1 0.184533 0.438996 0.869965
229 1 0.123994 0.252392 0.752042
753 1 0.248892 0.254344 0.875708
253 1 0.124211 0.376651 0.875425
251 1 0.0649531 0.376778 0.936189
256 1 0.118123 0.445524 0.941511
142 1 0.179828 0.439646 0.997397
226 1 0.0648285 0.31372 0.74979
249 1 0.00121591 0.378658 0.876505
230 1 0.184726 0.312844 0.753162
649 1 0.246412 0.376797 0.997738
756 1 0.24902 0.313018 0.937465
138 1 0.0533101 0.442931 1.0006
881 1 0.243651 0.49932 0.874005
141 1 0.120366 0.38108 0.997127
238 1 0.186457 0.435829 0.751434
401 1 0.00164026 0.748568 0.126808
264 1 0.128901 0.563649 0.0630326
271 1 0.190671 0.62384 0.0586965
793 1 0.247346 0.62525 0.125232
277 1 0.124239 0.501965 0.130397
785 1 0.245679 0.503094 0.126439
267 1 0.065093 0.62363 0.0611905
286 1 0.187123 0.682666 0.126951
302 1 0.190252 0.687469 0.248299
272 1 0.129429 0.683704 0.064845
274 1 0.0642125 0.564458 0.128337
258 1 0.0642993 0.562015 0.00175919
278 1 0.187078 0.56036 0.131323
391 1 0.190137 0.745204 0.0651809
285 1 0.125753 0.623572 0.125013
288 1 0.123018 0.681089 0.189017
282 1 0.0673953 0.686439 0.125262
287 1 0.187776 0.624719 0.186194
280 1 0.124068 0.567271 0.186862
283 1 0.0598912 0.62383 0.191149
929 1 0.250385 0.747436 0.248953
403 1 0.0586755 0.743557 0.18725
281 1 0.00464142 0.627043 0.119428
417 1 -4.58383e-05 0.747343 0.246483
772 1 0.250326 0.561417 0.0633058
261 1 0.123729 0.502154 0.00398942
407 1 0.188872 0.748555 0.190159
294 1 0.184434 0.561886 0.244091
387 1 0.0614526 0.743133 0.0637793
293 1 0.122466 0.500878 0.246028
298 1 0.063924 0.685638 0.247264
270 1 0.194709 0.687882 0.0012087
295 1 0.178195 0.499845 0.308235
307 1 0.064159 0.500177 0.433653
825 1 0.249266 0.626042 0.374756
419 1 0.0616432 0.747777 0.308309
303 1 0.189294 0.621576 0.3086
304 1 0.12874 0.685439 0.313628
833 1 0.246768 0.502361 0.497131
312 1 0.124078 0.563096 0.437076
330 1 0.0586423 0.684124 0.494078
320 1 0.123173 0.689844 0.430868
296 1 0.123613 0.561649 0.313399
319 1 0.183207 0.626805 0.432788
299 1 0.0623388 0.621491 0.311957
300 1 0.00429254 0.68748 0.310958
317 1 0.123827 0.621609 0.3749
318 1 0.191945 0.695944 0.373803
333 1 0.127825 0.633374 0.497475
314 1 0.0660899 0.688296 0.370186
306 1 0.0590156 0.56291 0.372275
310 1 0.183624 0.567946 0.372768
315 1 0.0619299 0.621894 0.436091
311 1 0.188336 0.505238 0.432097
326 1 0.188502 0.568432 0.495872
801 1 0.24891 0.500114 0.24978
291 1 0.0655978 0.50289 0.314184
334 1 0.192116 0.687312 0.495515
423 1 0.185819 0.749179 0.309611
453 1 0.125718 0.74416 0.495392
325 1 0.127616 0.502462 0.497379
321 1 0.00340803 0.49932 0.497532
290 1 0.0612807 0.561256 0.252675
301 1 0.122129 0.627949 0.250382
297 1 0.000494542 0.623474 0.252281
421 1 0.122218 0.748228 0.248834
343 1 0.191615 0.501787 0.685276
345 1 0.00258475 0.625258 0.621359
324 1 0.00596415 0.564289 0.564203
327 1 0.189188 0.505644 0.560203
361 1 0.00222999 0.628174 0.749031
347 1 0.06066 0.624625 0.687609
451 1 0.0670506 0.743755 0.555798
328 1 0.126901 0.556185 0.565823
342 1 0.192193 0.564729 0.628949
331 1 0.0629155 0.628021 0.556518
977 1 0.244916 0.749939 0.629836
346 1 0.0645075 0.682953 0.621222
335 1 0.184441 0.626701 0.561639
352 1 0.12452 0.686694 0.689945
336 1 0.124224 0.684188 0.562712
348 1 0.00156615 0.684859 0.685396
338 1 0.064439 0.562088 0.629414
344 1 0.124383 0.563982 0.688755
349 1 0.123706 0.620621 0.62575
351 1 0.185835 0.627074 0.689553
350 1 0.188837 0.687698 0.630083
455 1 0.18525 0.745502 0.563456
857 1 0.247524 0.623265 0.621344
465 1 0.00932468 0.745119 0.621092
467 1 0.062548 0.743583 0.688364
469 1 0.117668 0.746075 0.625577
844 1 0.247637 0.682277 0.563937
332 1 0.00178927 0.68486 0.562963
481 1 0.00276104 0.744496 0.742044
357 1 0.125491 0.501201 0.745876
485 1 0.126059 0.747269 0.746936
322 1 0.0631968 0.556351 0.50099
377 1 0.00643392 0.625878 0.869511
892 1 0.250155 0.691585 0.936151
360 1 0.128357 0.561742 0.812
380 1 0.00562921 0.685024 0.93317
367 1 0.18926 0.627349 0.812708
359 1 0.187374 0.502367 0.810941
355 1 0.0640337 0.502588 0.811993
371 1 0.058129 0.505423 0.931189
269 1 0.131329 0.629453 1.00041
375 1 0.1816 0.503003 0.940498
374 1 0.195445 0.567394 0.872141
381 1 0.123362 0.629668 0.871863
363 1 0.0645625 0.621503 0.808224
384 1 0.118368 0.686391 0.938784
368 1 0.128781 0.686053 0.811613
378 1 0.0661249 0.691597 0.874071
382 1 0.183164 0.692624 0.87603
370 1 0.0648596 0.566402 0.870476
376 1 0.129106 0.570759 0.935599
383 1 0.192245 0.62869 0.938473
379 1 0.0610515 0.62592 0.932894
876 1 0.248933 0.69222 0.816501
358 1 0.194315 0.566279 0.751278
354 1 0.0635237 0.560817 0.748937
889 1 0.245727 0.635435 0.874055
373 1 0.124763 0.506074 0.877935
385 1 0.00409722 0.748163 0.990419
262 1 0.187844 0.562385 0.995134
266 1 0.0622743 0.681948 0.998316
366 1 0.191764 0.68831 0.752385
362 1 0.0646539 0.687405 0.755864
993 1 0.248544 0.749332 0.750537
365 1 0.125146 0.623438 0.75398
402 1 0.0625204 0.809576 0.124534
5 1 0.122104 0.996516 0.000383941
409 1 0.00247189 0.872848 0.124268
7 1 0.197055 0.995459 0.0640554
395 1 0.058241 0.871294 0.0566478
392 1 0.128862 0.808674 0.0599754
405 1 0.122748 0.751779 0.125863
400 1 0.125856 0.944079 0.0618878
411 1 0.0606286 0.874009 0.184119
908 1 0.248984 0.928713 0.0626418
412 1 0.00204312 0.939975 0.190565
394 1 0.0661768 0.936075 -0.000568923
386 1 0.0645075 0.806683 0.000710027
414 1 0.188697 0.935338 0.1251
406 1 0.188799 0.817061 0.122645
415 1 0.193107 0.87607 0.18718
413 1 0.125981 0.878203 0.12544
410 1 0.0619293 0.938658 0.125109
399 1 0.184522 0.876086 0.0613157
408 1 0.127941 0.81149 0.193931
23 1 0.187011 0.997947 0.186846
416 1 0.13101 0.935949 0.186286
404 1 0.00204429 0.814611 0.183791
418 1 0.0614467 0.809288 0.244419
21 1 0.124455 0.995036 0.127383
430 1 0.195864 0.938797 0.249352
422 1 0.190052 0.809442 0.249315
429 1 0.133391 0.876221 0.24916
513 1 0.251328 0.997789 0.0010275
424 1 0.125756 0.809394 0.309494
426 1 0.0709287 0.93559 0.249006
450 1 0.0610569 0.810635 0.495558
431 1 0.188844 0.878279 0.311827
437 1 0.128025 0.753721 0.376066
948 1 0.246804 0.814416 0.435625
427 1 0.0628197 0.873729 0.307872
432 1 0.125508 0.936298 0.313126
461 1 0.123027 0.871543 0.500141
439 1 0.187271 0.754094 0.43645
438 1 0.18329 0.816465 0.374481
434 1 0.0631781 0.818846 0.371819
445 1 0.12588 0.875085 0.375051
442 1 0.0537776 0.937635 0.37298
39 1 0.185069 0.994595 0.314631
446 1 0.189547 0.936954 0.373268
447 1 0.186452 0.876632 0.43456
440 1 0.118912 0.814094 0.435823
956 1 0.243387 0.934713 0.437995
448 1 0.122287 0.934495 0.431498
443 1 0.0586476 0.87716 0.438641
458 1 0.0624857 0.93281 0.500172
462 1 0.181956 0.938085 0.495599
53 1 0.122838 0.995125 0.377141
435 1 0.0644075 0.751553 0.436731
51 1 0.0640633 0.995957 0.441641
420 1 0.00303116 0.812049 0.307566
428 1 0.00230048 0.939064 0.304362
932 1 0.245806 0.804058 0.315354
65 1 -0.00123056 0.993917 0.499813
55 1 0.180885 0.994968 0.436837
969 1 0.247225 0.875943 0.495178
425 1 -0.000749613 0.874121 0.251334
456 1 0.116749 0.813551 0.562067
985 1 0.245556 0.872549 0.623624
479 1 0.186703 0.874449 0.68193
1001 1 0.243564 0.879703 0.74499
460 1 0.00137101 0.936942 0.564246
480 1 0.120123 0.936034 0.69127
964 1 0.246542 0.811819 0.560598
470 1 0.185641 0.809104 0.626173
468 1 0.00101533 0.815153 0.685973
459 1 0.0635978 0.872311 0.560205
477 1 0.123292 0.872936 0.62194
463 1 0.185755 0.874031 0.565991
474 1 0.0645123 0.936252 0.630397
464 1 0.124264 0.935225 0.558263
478 1 0.186279 0.93984 0.625955
452 1 0.00369931 0.807416 0.56022
466 1 0.0633003 0.812277 0.625156
454 1 0.178999 0.807247 0.503705
475 1 0.0623158 0.868571 0.68899
972 1 0.246607 0.933508 0.563752
472 1 0.121586 0.809458 0.691557
473 1 0.0060602 0.878442 0.618817
980 1 0.247814 0.813744 0.684425
471 1 0.186647 0.75396 0.686681
486 1 0.186503 0.815828 0.746591
83 1 0.0588816 0.998195 0.687216
593 1 0.247543 0.995541 0.621089
609 1 0.248482 0.99728 0.751425
67 1 0.0587598 0.998919 0.557092
494 1 0.184355 0.938807 0.747483
493 1 0.120642 0.872252 0.747199
489 1 0.00128928 0.87268 0.748042
101 1 0.123428 0.998813 0.748175
490 1 0.0598451 0.933701 0.748581
488 1 0.125455 0.813929 0.812397
483 1 0.0645255 0.752714 0.811839
503 1 0.187967 0.752534 0.941102
511 1 0.188412 0.872786 0.932988
495 1 0.188615 0.87465 0.811412
496 1 0.12235 0.934663 0.813322
97 1 -0.000421666 0.995773 0.754149
502 1 0.18932 0.815935 0.870606
507 1 0.0620682 0.878357 0.937087
509 1 0.127311 0.872677 0.873037
491 1 0.0578142 0.87583 0.810048
506 1 0.0642762 0.936428 0.87502
1004 1 0.24494 0.939671 0.814343
487 1 0.18876 0.756632 0.807844
510 1 0.182622 0.942347 0.872115
504 1 0.122399 0.817323 0.931786
498 1 0.0615911 0.816494 0.871907
508 1 0.00477674 0.943365 0.934367
512 1 0.127462 0.933129 0.93991
99 1 0.0665045 0.996376 0.811905
1020 1 0.245427 0.941731 0.937849
1009 1 0.245248 0.75148 0.873467
497 1 0.00368101 0.752691 0.876223
500 1 0.00398645 0.814613 0.936272
1012 1 0.245778 0.810655 0.93122
505 1 0.00211931 0.877975 0.874914
499 1 0.0641544 0.74953 0.934788
397 1 0.122876 0.875732 0.998451
103 1 0.182364 1.00169 0.811807
501 1 0.128225 0.757134 0.874347
905 1 0.246956 0.874323 0.99399
115 1 0.0665502 0.998913 0.937837
390 1 0.187174 0.815416 0.997714
389 1 0.12705 0.753567 0.997104
398 1 0.186343 0.936828 0.995562
482 1 0.0588616 0.811184 0.749157
520 1 0.374512 0.0559849 0.0593221
542 1 0.435949 0.191505 0.121137
544 1 0.374975 0.182569 0.185626
527 1 0.429625 0.122792 0.0615859
528 1 0.374927 0.186999 0.0649445
519 1 0.446779 0.00390961 0.0596035
539 1 0.311373 0.122849 0.189706
550 1 0.434484 0.0606825 0.250236
516 1 0.253401 0.0588155 0.067759
537 1 0.249962 0.118051 0.132813
534 1 0.43647 0.0629213 0.123163
523 1 0.310398 0.1295 0.0655889
530 1 0.314506 0.0584957 0.127735
541 1 0.373389 0.125649 0.126799
538 1 0.309234 0.189831 0.124748
543 1 0.435606 0.121785 0.186214
536 1 0.372736 0.0631071 0.190093
1049 1 0.498387 0.124001 0.129368
540 1 0.257653 0.19251 0.191696
663 1 0.438347 0.247328 0.19033
518 1 0.434659 0.0627308 0.00018916
522 1 0.313591 0.194305 0.00913489
1065 1 0.496867 0.124151 0.247472
514 1 0.31073 0.0594302 0.000351288
1033 1 0.493081 0.124541 0.00133998
1044 1 0.494794 0.0640616 0.186331
535 1 0.433496 0.00341418 0.181462
1052 1 0.498565 0.187271 0.187949
529 1 0.25368 0.000705615 0.131118
526 1 0.438566 0.188407 0.006365
564 1 0.251679 0.055414 0.435816
673 1 0.257246 0.249081 0.259374
693 1 0.371909 0.24594 0.377769
558 1 0.441612 0.186697 0.251044
555 1 0.315966 0.118976 0.316921
560 1 0.374474 0.181721 0.320056
585 1 0.251995 0.123163 0.500276
562 1 0.314309 0.0610516 0.374019
552 1 0.379362 0.0636018 0.316081
566 1 0.442662 0.0634108 0.373781
554 1 0.315681 0.185162 0.255702
559 1 0.442283 0.120575 0.309454
573 1 0.375971 0.123046 0.382788
574 1 0.443394 0.18283 0.377309
570 1 0.312026 0.185871 0.378649
568 1 0.371497 0.0609676 0.43809
546 1 0.312269 0.0570207 0.251877
571 1 0.314519 0.121281 0.435505
576 1 0.372847 0.186661 0.440187
575 1 0.437778 0.11577 0.435963
556 1 0.251878 0.179373 0.317675
691 1 0.309238 0.247803 0.439823
569 1 0.253574 0.123619 0.376044
675 1 0.316682 0.247016 0.315177
572 1 0.249007 0.191472 0.434734
590 1 0.441387 0.190624 0.496318
1068 1 0.49837 0.182842 0.312822
679 1 0.429711 0.244309 0.315333
557 1 0.380038 0.12558 0.251838
721 1 0.250596 0.245066 0.628962
587 1 0.311453 0.128389 0.566871
608 1 0.376712 0.189608 0.690634
591 1 0.435039 0.12304 0.563671
592 1 0.375251 0.187853 0.558782
1105 1 0.495712 -0.000776731 0.623027
588 1 0.251679 0.185355 0.563235
600 1 0.372319 0.0630611 0.68847
594 1 0.308987 0.0560644 0.620335
584 1 0.374148 0.0667899 0.566883
598 1 0.434833 0.0691571 0.626185
603 1 0.307949 0.127243 0.691822
605 1 0.372291 0.125108 0.628676
602 1 0.317776 0.186043 0.625794
589 1 0.370047 0.118273 0.501355
606 1 0.441491 0.186806 0.626586
1108 1 0.498746 0.0610767 0.684478
607 1 0.435789 0.123881 0.687203
1113 1 0.501282 0.120939 0.628199
1100 1 0.499226 0.185092 0.562389
597 1 0.375719 0.00467201 0.620333
582 1 0.433032 0.0638901 0.504463
1092 1 0.493783 0.0589012 0.561925
707 1 0.321658 0.246759 0.566468
723 1 0.314733 0.245559 0.685176
614 1 0.436663 0.0577368 0.740853
622 1 0.437561 0.180626 0.748303
1129 1 0.497489 0.122764 0.74491
578 1 0.30832 0.0552037 0.503357
586 1 0.305063 0.191367 0.502378
635 1 0.30992 0.13105 0.943468
629 1 0.373212 0.00592509 0.874075
615 1 0.450143 0.00321249 0.814964
743 1 0.436219 0.245006 0.810373
755 1 0.311153 0.246608 0.938104
640 1 0.375074 0.186134 0.94481
631 1 0.43426 0.000267892 0.937549
616 1 0.381275 0.0589098 0.812405
1025 1 0.496514 0.00249532 0.996762
623 1 0.443777 0.120396 0.811317
619 1 0.306786 0.123356 0.809574
634 1 0.317259 0.184864 0.877668
624 1 0.379101 0.183832 0.814413
626 1 0.304293 0.0656595 0.874053
637 1 0.371824 0.119356 0.875185
639 1 0.435681 0.121963 0.941036
630 1 0.436963 0.0630932 0.873406
638 1 0.432689 0.183607 0.885214
610 1 0.307683 0.0648981 0.75012
632 1 0.366719 0.0594177 0.937149
1148 1 0.494466 0.185147 0.940098
757 1 0.377095 0.248387 0.877973
618 1 0.312664 0.188877 0.754344
1140 1 0.499759 0.0689573 0.943475
1132 1 0.497584 0.186681 0.81099
739 1 0.315784 0.244996 0.821483
620 1 0.251631 0.188055 0.823989
621 1 0.37523 0.125687 0.752052
613 1 0.366053 0.00194459 0.751377
525 1 0.374812 0.121393 0.996986
737 1 0.253735 0.245909 0.75547
647 1 0.436728 0.26066 0.0635768
643 1 0.31094 0.256543 0.0700887
651 1 0.308835 0.386481 0.0575808
656 1 0.374651 0.442272 0.0594783
655 1 0.432185 0.377591 0.059743
678 1 0.441272 0.315156 0.248396
1169 1 0.495594 0.251957 0.1239
666 1 0.308557 0.440464 0.121295
657 1 0.251475 0.253985 0.131956
648 1 0.365037 0.319593 0.0538595
672 1 0.374767 0.44201 0.187342
645 1 0.375726 0.251423 0.00605159
658 1 0.309257 0.324813 0.12186
662 1 0.437546 0.320346 0.127414
1164 1 0.496885 0.440696 0.0676987
1177 1 0.499073 0.37884 0.122978
671 1 0.436669 0.378361 0.190168
664 1 0.371685 0.319025 0.181712
670 1 0.432342 0.440022 0.127038
1180 1 0.499233 0.434742 0.18955
667 1 0.312034 0.381081 0.184293
669 1 0.370602 0.379086 0.117042
1172 1 0.500673 0.313331 0.187714
775 1 0.43266 0.495969 0.0595946
1297 1 0.497608 0.497949 0.135548
661 1 0.37092 0.258049 0.129201
659 1 0.315758 0.254842 0.190497
677 1 0.375043 0.252202 0.247965
682 1 0.313353 0.433907 0.24778
685 1 0.373271 0.373507 0.246728
646 1 0.438394 0.318512 0.00368032
689 1 0.254601 0.255687 0.37366
703 1 0.441241 0.378245 0.442551
1212 1 0.493594 0.440343 0.440841
683 1 0.312575 0.377095 0.310764
686 1 0.4441 0.436667 0.252332
688 1 0.380599 0.435582 0.314579
674 1 0.312238 0.312993 0.251689
699 1 0.313387 0.370531 0.435923
819 1 0.317647 0.492387 0.435561
680 1 0.379135 0.315966 0.313259
694 1 0.441852 0.308975 0.372224
698 1 0.317106 0.432695 0.373785
687 1 0.440327 0.374401 0.308802
690 1 0.31571 0.313407 0.373598
701 1 0.380637 0.373809 0.373862
695 1 0.435021 0.254298 0.436146
692 1 0.249494 0.311567 0.436888
702 1 0.437761 0.436621 0.374665
803 1 0.318663 0.495668 0.315853
696 1 0.376809 0.313229 0.435966
704 1 0.377349 0.431055 0.434953
823 1 0.440653 0.498032 0.444965
684 1 0.248989 0.444994 0.316601
700 1 0.251037 0.439001 0.434907
713 1 0.249582 0.376467 0.497171
705 1 0.248963 0.253775 0.502672
711 1 0.436375 0.251166 0.567628
712 1 0.37517 0.319252 0.558999
716 1 0.253492 0.444456 0.567729
865 1 0.248814 0.49771 0.748414
736 1 0.378153 0.430542 0.686092
746 1 0.312649 0.440649 0.747376
720 1 0.375007 0.444823 0.565863
706 1 0.307137 0.311598 0.510362
722 1 0.313011 0.308958 0.624577
726 1 0.434518 0.314155 0.624782
734 1 0.441849 0.441554 0.626742
715 1 0.307537 0.37822 0.565179
733 1 0.370408 0.377622 0.624329
1220 1 0.494995 0.31653 0.566966
730 1 0.313135 0.442788 0.632202
719 1 0.434821 0.380372 0.568201
724 1 0.250046 0.312965 0.685185
735 1 0.438534 0.371863 0.686235
731 1 0.312346 0.37118 0.692674
728 1 0.370778 0.313582 0.691941
725 1 0.38095 0.250994 0.629265
727 1 0.438484 0.256228 0.688509
714 1 0.309739 0.436772 0.502949
1233 1 0.497818 0.250479 0.62832
837 1 0.373069 0.500799 0.499984
1228 1 0.498273 0.435041 0.563309
718 1 0.431001 0.439672 0.50054
855 1 0.439595 0.49602 0.692445
710 1 0.439594 0.313467 0.50292
717 1 0.375915 0.379289 0.503741
709 1 0.374482 0.255004 0.502356
741 1 0.373663 0.251096 0.750661
760 1 0.374906 0.313386 0.935223
742 1 0.439847 0.308199 0.750176
747 1 0.310547 0.384146 0.811457
749 1 0.374069 0.371501 0.754331
653 1 0.367507 0.381898 0.99341
745 1 0.252391 0.381508 0.750076
754 1 0.315151 0.308841 0.871405
768 1 0.371905 0.438356 0.927866
744 1 0.374584 0.30679 0.815787
761 1 0.250298 0.369221 0.86914
765 1 0.373452 0.372925 0.876139
751 1 0.440681 0.369362 0.811327
740 1 0.250287 0.306673 0.808181
752 1 0.370582 0.443371 0.818556
750 1 0.436525 0.433943 0.748937
762 1 0.302519 0.441438 0.876227
758 1 0.441997 0.306451 0.877614
767 1 0.443155 0.372228 0.937898
766 1 0.437214 0.43025 0.876633
763 1 0.306747 0.370418 0.931843
1281 1 0.490771 0.494527 0.992227
642 1 0.304852 0.319607 0.996655
650 1 0.307258 0.435787 0.988879
654 1 0.43052 0.438095 0.994108
738 1 0.31559 0.312839 0.753969
759 1 0.433403 0.250812 0.938806
1153 1 0.498774 0.251484 0.994425
1257 1 0.498219 0.372853 0.753648
781 1 0.37079 0.622733 0.00225551
780 1 0.254647 0.689901 0.0619653
796 1 0.258204 0.685895 0.185167
799 1 0.441645 0.618194 0.193455
787 1 0.310874 0.501318 0.18884
789 1 0.369347 0.500201 0.125479
800 1 0.378595 0.680958 0.187117
797 1 0.379759 0.622136 0.124997
776 1 0.367465 0.563639 0.0630683
790 1 0.432993 0.559722 0.121495
794 1 0.317018 0.690306 0.123136
779 1 0.311787 0.622235 0.0617848
783 1 0.43549 0.63042 0.059469
777 1 0.252366 0.625408 0.00322628
784 1 0.373945 0.686789 0.058374
798 1 0.434622 0.687548 0.122308
786 1 0.311325 0.568969 0.129302
792 1 0.376827 0.558292 0.192533
795 1 0.316359 0.627418 0.186962
1305 1 0.49973 0.624211 0.120944
791 1 0.441532 0.500441 0.196319
771 1 0.311915 0.503485 0.0590584
903 1 0.437049 0.746558 0.0613534
1425 1 0.499711 0.749687 0.127777
919 1 0.437897 0.747891 0.185202
774 1 0.434691 0.563883 0.000188144
915 1 0.317119 0.748856 0.185739
1308 1 0.497681 0.68068 0.178891
1284 1 0.494105 0.554556 0.0598431
788 1 0.250294 0.563273 0.187767
933 1 0.37943 0.749061 0.248217
810 1 0.319343 0.685829 0.248161
814 1 0.438837 0.68387 0.242329
802 1 0.30804 0.566431 0.249325
778 1 0.308659 0.691465 0.00154492
808 1 0.378805 0.560137 0.312368
812 1 0.254271 0.693042 0.316646
1324 1 0.499014 0.684507 0.306289
828 1 0.256204 0.690242 0.434442
841 1 0.254304 0.626958 0.499953
816 1 0.378679 0.687216 0.309418
804 1 0.251839 0.562805 0.311985
832 1 0.375572 0.684332 0.440685
821 1 0.380824 0.501695 0.375199
818 1 0.31761 0.560016 0.373649
822 1 0.438049 0.557205 0.381314
831 1 0.437689 0.626228 0.430533
811 1 0.315295 0.625564 0.312769
829 1 0.373732 0.627596 0.379001
815 1 0.430287 0.624685 0.321359
830 1 0.440206 0.688895 0.375529
826 1 0.31881 0.69059 0.372126
824 1 0.376316 0.557484 0.437635
827 1 0.309149 0.62349 0.434309
1332 1 0.499422 0.558835 0.441411
807 1 0.440806 0.500106 0.314006
820 1 0.248888 0.565084 0.440379
805 1 0.371745 0.501458 0.253528
951 1 0.443881 0.751552 0.437432
1337 1 0.496899 0.626074 0.36865
1441 1 0.499684 0.746059 0.249576
806 1 0.442246 0.562891 0.258471
817 1 0.252909 0.50328 0.380907
1340 1 0.496678 0.684694 0.432343
931 1 0.316248 0.750075 0.315649
846 1 0.443336 0.694662 0.496047
834 1 0.312039 0.566152 0.494725
1353 1 0.49864 0.627895 0.497069
813 1 0.37604 0.621723 0.253272
809 1 0.254081 0.630211 0.253571
840 1 0.374687 0.566339 0.563212
983 1 0.438281 0.746887 0.696697
839 1 0.444728 0.503241 0.561905
836 1 0.249014 0.562912 0.553965
848 1 0.381227 0.689718 0.556168
852 1 0.250775 0.570404 0.68672
1356 1 0.493249 0.684884 0.567873
850 1 0.307577 0.5653 0.621515
1369 1 0.499144 0.624962 0.627546
963 1 0.308509 0.749428 0.563717
861 1 0.378606 0.628562 0.625168
864 1 0.372926 0.687437 0.687284
843 1 0.318366 0.626976 0.564591
847 1 0.436068 0.626411 0.558049
860 1 0.250049 0.689606 0.690652
859 1 0.312686 0.625722 0.687423
862 1 0.43278 0.697326 0.626383
856 1 0.374152 0.565088 0.685576
854 1 0.443796 0.559164 0.632506
863 1 0.436443 0.629033 0.688391
858 1 0.313102 0.686295 0.627043
851 1 0.311288 0.512352 0.686288
835 1 0.311153 0.501169 0.565351
853 1 0.373447 0.502175 0.627338
849 1 0.251108 0.505956 0.623765
1372 1 0.498096 0.689542 0.686089
838 1 0.440293 0.55981 0.504648
842 1 0.316334 0.683982 0.50188
877 1 0.369562 0.624903 0.750321
878 1 0.440451 0.685245 0.74846
845 1 0.37705 0.620917 0.499715
887 1 0.431833 0.5009 0.932321
888 1 0.368212 0.568739 0.935166
884 1 0.251368 0.566114 0.942283
885 1 0.367558 0.507618 0.877566
879 1 0.435703 0.629243 0.812166
875 1 0.313725 0.628345 0.814878
880 1 0.377667 0.690186 0.811049
871 1 0.432835 0.512266 0.813706
882 1 0.306928 0.568221 0.877958
895 1 0.436569 0.620066 0.937895
872 1 0.369711 0.565769 0.817627
893 1 0.375027 0.630764 0.875553
870 1 0.4338 0.571508 0.752805
890 1 0.314488 0.686391 0.878641
894 1 0.434784 0.689588 0.874526
886 1 0.438066 0.563099 0.877198
891 1 0.312448 0.634507 0.940544
869 1 0.36757 0.50577 0.749576
896 1 0.373376 0.690468 0.940987
1396 1 0.496834 0.560141 0.936917
866 1 0.309507 0.56513 0.752868
868 1 0.251836 0.572177 0.814876
874 1 0.31334 0.692258 0.754689
782 1 0.439557 0.678451 0.995829
1393 1 0.496672 0.502919 0.86913
883 1 0.301079 0.50192 0.932256
773 1 0.373862 0.501923 0.993426
867 1 0.30914 0.505362 0.81032
1388 1 0.49954 0.687948 0.813001
770 1 0.311367 0.558707 0.999679
1013 1 0.372805 0.748092 0.872688
999 1 0.439084 0.748773 0.807032
873 1 0.254837 0.62814 0.752409
1011 1 0.31462 0.748462 0.935127
1015 1 0.43651 0.748807 0.939943
1377 1 0.50006 0.504823 0.756464
918 1 0.435726 0.808374 0.1204
922 1 0.311812 0.936857 0.126468
900 1 0.252814 0.81303 0.0634416
1412 1 0.497132 0.810335 0.0597075
907 1 0.315368 0.871696 0.0702324
927 1 0.439613 0.872298 0.179775
912 1 0.374157 0.937876 0.0613185
914 1 0.311162 0.810032 0.129494
928 1 0.379441 0.935849 0.185969
926 1 0.437606 0.939782 0.118113
899 1 0.312263 0.75201 0.0622327
917 1 0.373676 0.749213 0.119506
921 1 0.250601 0.872965 0.126674
515 1 0.311659 0.994375 0.0638976
1057 1 0.499885 1.00057 0.243399
920 1 0.378735 0.806433 0.184991
904 1 0.373487 0.812047 0.0589977
911 1 0.431531 0.873078 0.0619484
925 1 0.374844 0.873283 0.124532