ITEM: TIMESTEP
100000
ITEM: NUMBER OF ATOMS
2048
ITEM: BOX BOUNDS pp pp pp
0.0000000000000000e+00 1.1950412657485773e+01
0.0000000000000000e+00 1.1950412657485773e+01
0.0000000000000000e+00 1.1950412657485773e+01
ITEM: ATOMS id type xs ys zs
8 1 0.11975 0.0680804 0.0620918
5 1 0.131893 0.00198942 0.00978366
27 1 0.070261 0.131998 0.190801
151 1 0.193415 0.249626 0.192224
24 1 0.124752 0.0682116 0.184612
15 1 0.198874 0.124231 0.0665267
23 1 0.183086 0.00287777 0.180666
38 1 0.185176 0.0580047 0.239439
14 1 0.182178 0.174647 -0.00212577
17 1 0.00263577 0.00512247 0.120939
31 1 0.188721 0.125434 0.178984
32 1 0.130559 0.188446 0.182521
11 1 0.0649568 0.127767 0.0702121
18 1 0.0576174 0.0691577 0.13718
29 1 0.137365 0.130774 0.120304
22 1 0.183406 0.0635524 0.128858
26 1 0.0573585 0.188053 0.122453
16 1 0.118953 0.188113 0.0610492
30 1 0.191513 0.196342 0.129332
42 1 0.0640595 0.186272 0.249545
34 1 0.0637749 0.0795447 0.249113
3 1 0.063462 0.00920968 0.067887
1543 1 0.0161718 0.0698952 0.0523763
755 1 0.24971 0.248409 0.00739696
10 1 0.0646555 0.196511 -0.000797303
161 1 0.00330483 0.239416 0.242774
135 1 0.1881 0.249389 0.0630918
45 1 0.125366 0.138888 0.248578
28 1 0.00449164 0.184045 0.187811
21 1 0.121126 0.00644578 0.126157
516 1 0.24848 0.0539846 0.0727794
149 1 0.121433 0.24302 0.121597
131 1 0.0478612 0.245749 0.066625
46 1 0.245397 0.117704 0.249722
25 1 0.00351645 0.125343 0.128042
12 1 0.00768485 0.180942 0.0508123
147 1 0.0548174 0.24766 0.179311
13 1 0.114321 0.133127 0.00446848
52 1 0.0013073 0.0717097 0.440541
197 1 0.125688 0.237766 0.499902
36 1 0.00693234 0.0731746 0.311862
553 1 0.246291 0.0604008 0.314084
74 1 0.0569635 0.18356 0.501088
64 1 0.119225 0.181386 0.438894
165 1 0.182272 0.200482 0.253811
40 1 0.123901 0.0770825 0.308681
54 1 0.186641 0.0668635 0.368621
43 1 0.0585363 0.132932 0.324457
47 1 0.185018 0.128188 0.311351
78 1 0.190771 0.187944 0.498203
48 1 0.12354 0.184628 0.320511
177 1 0.00695988 0.242999 0.366716
62 1 0.189163 0.187235 0.373851
50 1 0.0658202 0.0659916 0.368668
56 1 0.132427 0.0654175 0.441293
59 1 0.0690166 0.121155 0.436873
63 1 0.1993 0.120981 0.4442
61 1 0.126724 0.118542 0.374676
58 1 0.0625049 0.191652 0.383073
163 1 0.066252 0.247583 0.3025
49 1 0.00990528 0.00562742 0.38335
35 1 0.061078 0.00227147 0.316144
53 1 0.13305 0.000622425 0.359645
556 1 0.238492 0.185029 0.305736
569 1 0.239838 0.125806 0.37187
51 1 0.0785372 0.00583369 0.43253
96 1 0.135213 0.19191 0.688089
66 1 0.0734441 0.0611547 0.499704
72 1 0.131216 0.0587809 0.562101
80 1 0.136747 0.181312 0.567067
211 1 0.0708838 0.243711 0.681454
92 1 0.00656423 0.198709 0.685384
93 1 0.126688 0.12601 0.623619
86 1 0.200096 0.0535301 0.623424
91 1 0.0672246 0.116665 0.677358
79 1 0.193112 0.121177 0.568242
75 1 0.0642382 0.128908 0.559103
94 1 0.193873 0.186643 0.62802
82 1 0.0659673 0.0608343 0.614616
110 1 0.194815 0.245136 0.686868
73 1 0.0035719 0.124659 0.501105
88 1 0.129509 0.0600255 0.685793
95 1 0.190937 0.122442 0.67852
90 1 0.0784735 0.186189 0.630311
87 1 0.197578 0.00481283 0.693926
76 1 0.00302669 0.193457 0.558919
89 1 0.00476667 0.119731 0.614203
102 1 0.207562 0.0738018 0.740561
195 1 0.0779594 0.245506 0.568136
199 1 0.191578 0.243973 0.559132
83 1 0.061206 0.0083198 0.677485
68 1 0.0122541 0.0546706 0.557514
77 1 0.129149 0.12482 0.503989
109 1 0.124807 0.134673 0.748166
213 1 0.136231 0.247815 0.622884
84 1 0.00418286 0.0671804 0.687068
585 1 0.249977 0.117854 0.499835
97 1 0.0061158 0.00929536 0.741774
101 1 0.110975 0.0117162 0.744477
70 1 0.195818 0.0617087 0.505098
636 1 0.240018 0.188295 0.945386
104 1 0.126898 0.0671837 0.804774
106 1 0.0745046 0.195913 0.754455
100 1 0.0078735 0.0622792 0.816889
112 1 0.131685 0.177647 0.819259
124 1 0.00282007 0.198425 0.920855
242 1 0.0640948 0.250592 0.943946
127 1 0.198999 0.119132 0.933848
633 1 0.245043 0.114705 0.864008
107 1 0.0713881 0.126927 0.814334
111 1 0.189656 0.118245 0.809533
122 1 0.0717368 0.193948 0.867288
126 1 0.18535 0.178661 0.879605
247 1 0.136664 0.247387 0.883588
103 1 0.181379 0.0118296 0.794219
123 1 0.0648334 0.0530832 0.872077
125 1 0.12467 0.124216 0.879651
118 1 0.176433 0.0579883 0.876872
9 1 0.0544954 0.110309 0.929277
128 1 0.126869 0.185876 0.94329
4 1 -0.000717255 0.12401 0.991046
105 1 0.0158186 0.139892 0.754881
119 1 0.191005 0.0129418 0.942347
120 1 0.123529 0.062252 0.935807
231 1 0.23853 0.186281 0.809089
6 1 0.181387 0.0723068 0.997963
2 1 0.0734884 0.0615355 0.995977
98 1 0.0595581 0.0748471 0.75257
620 1 0.183508 0.192661 0.754576
148 1 0.00925417 0.312494 0.195597
170 1 0.0553973 0.433667 0.243582
139 1 0.0702701 0.381562 0.0648231
644 1 0.246966 0.31598 0.0486856
243 1 0.0663168 0.309448 0.0072782
175 1 0.245018 0.366387 0.243518
141 1 0.127511 0.372497 5.95503e-05
167 1 0.117158 0.249307 0.2402
140 1 0.0155729 0.435105 0.0613978
152 1 0.136693 0.321017 0.181705
657 1 0.247334 0.260111 0.12282
130 1 0.127881 0.303364 0.0628599
143 1 0.189097 0.379657 0.0529528
660 1 0.233938 0.380507 0.13207
144 1 0.12549 0.437728 0.0684832
158 1 0.17525 0.449957 0.128945
146 1 0.059652 0.315437 0.11774
160 1 0.122798 0.44628 0.193655
157 1 0.132813 0.374262 0.11834
150 1 0.185156 0.309514 0.117828
155 1 0.0615076 0.37538 0.185557
154 1 0.0553905 0.440999 0.134799
159 1 0.18497 0.387574 0.193917
652 1 0.241964 0.436277 0.0747479
138 1 0.0736333 0.43616 0.00272883
673 1 0.243949 0.314711 0.185145
153 1 0.00519418 0.376682 0.122756
275 1 0.052523 0.499791 0.193364
259 1 0.0656152 0.49541 0.0583318
173 1 0.117993 0.381199 0.243696
172 1 0.00182966 0.439402 0.324107
684 1 0.243791 0.430859 0.310101
554 1 0.241709 0.253787 0.25589
201 1 0.0661597 0.366251 0.435813
169 1 0.00495016 0.372646 0.252539
184 1 0.126166 0.304365 0.440309
192 1 0.125764 0.430062 0.443842
166 1 0.184599 0.31553 0.25321
176 1 0.12396 0.439887 0.309701
190 1 0.175649 0.442052 0.368853
187 1 0.120552 0.378213 0.376239
168 1 0.123136 0.308983 0.31517
182 1 0.18026 0.312115 0.369586
171 1 0.0639437 0.367673 0.321899
189 1 0.180965 0.379463 0.307197
689 1 0.185137 0.254169 0.317942
186 1 0.0638894 0.435327 0.379914
191 1 0.177972 0.372004 0.435805
692 1 0.242891 0.259468 0.370933
178 1 0.0572553 0.309912 0.37607
164 1 0.00969552 0.305589 0.307947
697 1 0.242078 0.380281 0.374282
181 1 0.123372 0.254588 0.372196
700 1 0.246659 0.427866 0.43495
311 1 0.177927 0.497783 0.432395
676 1 0.241958 0.323164 0.317991
179 1 0.0644259 0.251704 0.435994
183 1 0.194215 0.258866 0.436969
174 1 0.185407 0.447575 0.254676
819 1 0.238251 0.491353 0.495817
1742 1 0.00941796 0.370712 0.492889
180 1 0.00867855 0.311901 0.439549
309 1 0.1169 0.495624 0.381849
307 1 0.0685605 0.493442 0.442506
162 1 0.0656837 0.316916 0.249878
198 1 0.184973 0.308874 0.496247
209 1 0.0064196 0.254664 0.626781
716 1 0.247313 0.433751 0.55687
708 1 0.245151 0.312061 0.562329
194 1 0.068554 0.305187 0.5029
205 1 0.13077 0.368896 0.509274
216 1 0.122405 0.321242 0.690005
224 1 0.118236 0.440365 0.695518
202 1 0.0622486 0.439352 0.503748
223 1 0.183326 0.372646 0.6926
835 1 0.24595 0.490191 0.620568
212 1 0.00211532 0.307575 0.684661
200 1 0.121813 0.3092 0.564794
214 1 0.184307 0.368528 0.570283
724 1 0.242668 0.313079 0.690188
203 1 0.0618303 0.373466 0.558165
207 1 0.179635 0.430925 0.628998
222 1 0.109428 0.439257 0.567927
732 1 0.251952 0.434678 0.687816
219 1 0.0558766 0.37479 0.691256
210 1 0.0685874 0.312481 0.625352
215 1 0.185776 0.311913 0.631165
218 1 0.0500507 0.427478 0.623701
221 1 0.114424 0.377234 0.632996
206 1 0.183371 0.429583 0.507995
849 1 0.184553 0.485588 0.686802
225 1 0.00812426 0.253042 0.746512
729 1 0.244696 0.381505 0.625116
220 1 0.00718225 0.447248 0.690838
341 1 0.11976 0.495819 0.634276
208 1 0.128783 0.491741 0.505631
833 1 0.182238 0.49848 0.56911
246 1 0.12069 0.323881 0.821608
244 1 0.003231 0.325119 0.946742
239 1 0.188915 0.372104 0.814654
235 1 0.0577958 0.371792 0.81553
240 1 0.122171 0.441714 0.81049
133 1 0.197543 0.255644 0.939455
238 1 0.17732 0.439246 0.752558
226 1 0.0487237 0.323539 0.747769
253 1 0.119273 0.37945 0.879007
254 1 0.185692 0.437865 0.867717
227 1 0.0593829 0.253031 0.813204
764 1 0.247607 0.438704 0.930263
881 1 0.243362 0.500031 0.869106
245 1 0.0634284 0.315078 0.887814
251 1 0.0671113 0.381346 0.942112
248 1 0.129058 0.320048 0.942031
756 1 0.185507 0.321694 0.882622
250 1 0.0587503 0.437048 0.877326
232 1 0.179863 0.262894 0.817228
761 1 0.2448 0.36692 0.875398
256 1 0.120424 0.442389 0.929565
252 1 0.00540006 0.439799 0.941171
230 1 0.184869 0.315563 0.751132
255 1 0.180874 0.386838 0.931457
649 1 0.186915 0.314814 0.994904
134 1 0.247044 0.317437 0.938074
745 1 0.239704 0.379026 0.751084
769 1 0.189828 0.45091 0.999762
865 1 0.237855 0.498649 0.750377
236 1 0.000761164 0.440116 0.810687
229 1 0.122123 0.262974 0.750718
748 1 0.244612 0.435474 0.813815
237 1 0.123639 0.376719 0.751995
737 1 0.242308 0.251546 0.747535
142 1 0.241751 0.382454 0.993694
136 1 0.131406 0.253706 0.988462
234 1 0.0595196 0.437229 0.752903
376 1 0.182842 0.493068 0.927498
266 1 0.0593057 0.690369 0.000498945
261 1 0.129464 0.506693 0.00848567
277 1 0.113309 0.503256 0.125695
260 1 0.0575808 0.6353 0.0587531
279 1 0.181761 0.504885 0.199175
267 1 0.115744 0.561592 0.0696381
287 1 0.191452 0.633026 0.197825
278 1 0.175955 0.552212 0.137549
282 1 0.0671141 0.688801 0.123014
285 1 0.117077 0.620971 0.12376
271 1 0.187605 0.631321 0.0626698
1798 1 0.003173 0.5685 0.0549539
272 1 0.127341 0.693139 0.0612889
286 1 0.181185 0.694289 0.126921
269 1 0.12113 0.624063 0.0151011
274 1 0.0477803 0.55119 0.12415
283 1 0.0650589 0.632022 0.186532
293 1 0.111459 0.503172 0.247466
276 1 0.00230878 0.568656 0.187356
294 1 0.168981 0.571509 0.249423
785 1 0.239205 0.503671 0.129703
288 1 0.121513 0.692932 0.193971
280 1 0.111098 0.565021 0.188512
391 1 0.246427 0.688674 0.0559662
793 1 0.242407 0.625407 0.126226
407 1 0.190826 0.74898 0.196665
268 1 0.000356978 0.694207 0.0642132
281 1 0.0081291 0.627615 0.124318
264 1 0.184315 0.562498 0.00870621
403 1 0.0616661 0.748495 0.189872
263 1 0.190952 0.502954 0.0628776
771 1 0.248304 0.517693 0.00550727
315 1 0.0577027 0.622514 0.443479
321 1 0.00530937 0.505697 0.498375
290 1 0.0612685 0.569472 0.249397
820 1 0.247261 0.564459 0.452507
299 1 0.0539374 0.622311 0.316458
303 1 0.184104 0.622412 0.316289
295 1 0.172909 0.504926 0.309131
296 1 0.124103 0.572106 0.31519
334 1 0.177566 0.686781 0.499035
314 1 0.054368 0.681731 0.379371
304 1 0.130446 0.690428 0.317177
317 1 0.123536 0.632303 0.377455
325 1 0.177699 0.556334 0.496417
319 1 0.185989 0.622701 0.445721
310 1 0.176263 0.555296 0.373414
306 1 0.0558454 0.569347 0.38143
320 1 0.117897 0.690916 0.438439
312 1 0.119398 0.5679 0.439694
292 1 -0.000261253 0.561944 0.309107
439 1 0.180728 0.743745 0.438471
318 1 0.190767 0.686881 0.377289
809 1 0.250392 0.615565 0.257279
302 1 0.183598 0.687666 0.256335
437 1 0.113588 0.74421 0.378992
801 1 0.246589 0.500658 0.262695
804 1 0.242966 0.561422 0.325019
419 1 0.0605954 0.744234 0.313796
301 1 0.124485 0.63271 0.259279
435 1 0.0578546 0.74864 0.438472
291 1 0.0676211 0.501463 0.316141
305 1 0.0151068 0.503373 0.382531
961 1 0.23718 0.742093 0.49346
298 1 0.0480246 0.693341 0.251715
348 1 -0.00240734 0.693358 0.683835
873 1 0.248009 0.628863 0.74975
331 1 -0.00248955 0.680719 0.563676
345 1 0.00131736 0.621988 0.628333
347 1 0.18553 0.622958 0.690748
349 1 0.0637169 0.619453 0.563982
451 1 0.134183 0.688014 0.56656
340 1 0.00493705 0.567875 0.686967
335 1 0.180821 0.614976 0.552462
858 1 0.241705 0.622056 0.621281
322 1 0.0649748 0.567155 0.502171
328 1 0.125398 0.558813 0.566499
323 1 0.0622763 0.505086 0.560861
343 1 0.118679 0.633917 0.621893
350 1 0.183892 0.689431 0.629654
326 1 0.235075 0.55447 0.55094
338 1 0.0690006 0.563815 0.625198
342 1 0.183558 0.564118 0.618943
352 1 0.130318 0.694483 0.692706
344 1 0.065412 0.69115 0.620128
337 1 0.00959659 0.505348 0.626011
339 1 0.129869 0.561909 0.68381
351 1 0.0704526 0.622649 0.688253
844 1 0.237619 0.692936 0.562154
453 1 0.122436 0.748785 0.512013
358 1 0.181266 0.559247 0.744322
361 1 0.0049645 0.636554 0.742417
333 1 0.113165 0.633079 0.50077
354 1 0.0638216 0.567398 0.750151
357 1 0.05987 0.509412 0.691025
330 1 0.0472881 0.69419 0.500802
860 1 0.243494 0.691146 0.688688
852 1 0.243119 0.564893 0.678059
324 1 0.00413222 0.565698 0.552592
365 1 0.123559 0.632102 0.743605
327 1 0.116415 0.502913 0.745971
378 1 0.0616829 0.70312 0.877647
876 1 0.244833 0.697781 0.809596
265 1 0.000953245 0.631574 0.999606
360 1 0.122966 0.502333 0.869678
368 1 0.131395 0.69595 0.817716
367 1 0.187061 0.628628 0.818994
369 1 0.00671898 0.499157 0.883756
375 1 0.0611604 0.503424 0.944911
366 1 0.133046 0.569993 0.807042
372 1 0.00245048 0.564792 0.947501
363 1 0.0785226 0.630479 0.808976
374 1 0.186207 0.554354 0.874912
362 1 0.0705582 0.691524 0.750003
382 1 0.192814 0.684645 0.878542
868 1 0.235399 0.567036 0.810634
364 1 0.0113677 0.673658 0.814489
373 1 0.0653337 0.573107 0.864131
384 1 0.119934 0.562151 0.92184
258 1 0.0722744 0.627663 0.945268
381 1 0.116815 0.635749 0.879178
383 1 0.175634 0.615518 0.947547
356 1 0.00614964 0.577517 0.809229
370 1 0.122125 0.695898 0.946698
481 1 0.001634 0.746047 0.761043
884 1 0.245138 0.568492 0.937612
355 1 0.0600647 0.503904 0.815877
889 1 0.249736 0.630021 0.876049
353 1 0.00540638 0.502769 0.753412
359 1 0.184812 0.504853 0.813624
270 1 0.186391 0.683164 0.992008
503 1 0.178334 0.751296 0.943592
777 1 0.24186 0.624676 0.992508
371 1 0.0676129 0.564297 0.998322
897 1 0.243383 0.750275 0.993693
485 1 0.184168 0.692318 0.753085
397 1 0.0632929 0.883549 0.05777
1 1 0.00224571 0.994734 0.0057164
386 1 0.0645298 0.81596 0.00113084
7 1 0.185078 0.999376 0.0720481
387 1 0.06288 0.749105 0.0567705
545 1 0.244473 0.990962 0.238735
392 1 0.122411 0.811552 0.0655104
388 1 0.0100355 0.82174 0.0607641
413 1 0.113396 0.873192 0.119465
399 1 0.189018 0.868955 0.064763
396 1 0.00167426 0.933691 0.0699864
400 1 0.115975 0.944303 0.0705923
414 1 0.185939 0.938202 0.129212
410 1 0.06169 0.927554 0.132266
398 1 0.183893 0.926713 0.00796095
529 1 0.245815 0.995289 0.129153
408 1 0.122889 0.802143 0.190133
411 1 0.0575247 0.875442 0.195204
402 1 0.0607133 0.804527 0.122285
406 1 0.186209 0.807687 0.141986
415 1 0.197487 0.871257 0.197267
416 1 0.127486 0.935318 0.186584
426 1 0.0658956 0.936993 0.248921
405 1 0.123684 0.748784 0.12134
513 1 0.244757 1.00246 0.00884815
390 1 0.192918 0.819471 -0.00157121
19 1 0.0546928 0.996497 0.187096
501 1 0.127273 0.756908 0.00541712
389 1 0.18741 0.751105 0.0614971
418 1 0.0638908 0.801258 0.248803
442 1 0.0589634 0.92884 0.390749
55 1 0.174703 0.995867 0.442128
429 1 0.124423 0.858665 0.25524
431 1 0.186481 0.856877 0.328568
956 1 0.242271 0.931595 0.44225
425 1 0.000133243 0.881367 0.256265
448 1 0.1259 0.930743 0.44519
424 1 0.118841 0.800801 0.321113
427 1 0.0619089 0.863333 0.31095
438 1 0.179425 0.805042 0.387043
428 1 0.00734472 0.935808 0.325036
432 1 0.107454 0.939933 0.316309
929 1 0.245379 0.757709 0.260263
440 1 0.130418 0.808472 0.454811
422 1 0.196811 0.820526 0.261959
446 1 0.183376 0.930741 0.386703
434 1 0.0574206 0.805525 0.378126
37 1 0.137073 0.984444 0.256481
443 1 0.0690435 0.863007 0.450283
445 1 0.119091 0.864678 0.385854
447 1 0.192086 0.866275 0.441537
420 1 0.000136788 0.813703 0.313371
945 1 0.245932 0.75622 0.386294
423 1 0.189644 0.751388 0.322662
421 1 0.133291 0.753611 0.257884
430 1 0.191077 0.921813 0.256232
548 1 0.245121 0.989923 0.37985
436 1 0.0104233 0.808775 0.443432
39 1 0.197428 0.994291 0.303718
461 1 0.128978 0.866747 0.514052
482 1 0.1242 0.759197 0.746344
462 1 0.182514 0.988671 0.566296
456 1 0.113071 0.81514 0.57454
476 1 0.0598533 0.879571 0.698009
464 1 0.120698 0.927963 0.564708
65 1 0.00764312 0.991268 0.508877
480 1 0.132168 0.943251 0.699077
457 1 0.00372797 0.933844 0.571154
454 1 0.193179 0.813247 0.523213
459 1 0.0583114 0.875869 0.566735
463 1 0.191007 0.880003 0.57804
458 1 0.0682402 0.924638 0.500061
474 1 0.058924 0.938504 0.630071
85 1 0.19007 0.939564 0.634412
467 1 0.0505952 0.821104 0.632095
470 1 0.183328 0.81489 0.629121
472 1 0.114916 0.821596 0.69373
477 1 0.125455 0.889238 0.635638
977 1 0.185592 0.755163 0.6811
346 1 0.0675567 0.751969 0.689757
980 1 0.190072 0.869031 0.687921
969 1 0.181445 0.925125 0.504503
452 1 0.0516379 0.751581 0.558542
336 1 0.185386 0.753749 0.572053
479 1 0.185366 0.80989 0.746056
450 1 0.0657749 0.812372 0.510044
469 1 0.120814 0.757252 0.633205
67 1 0.0677951 1.00061 0.55963
71 1 0.125652 0.985845 0.626162
473 1 0.00797599 0.94866 0.69581
1004 1 0.245235 0.935802 0.69533
81 1 0.00233087 0.999811 0.623305
69 1 0.121604 0.989284 0.503736
115 1 0.0563693 0.991416 0.929308
117 1 0.124399 0.996083 0.870532
466 1 0.0684554 0.822817 0.759514
490 1 0.0691098 0.935662 0.751431
488 1 0.120063 0.810405 0.818936
500 1 0.00485015 0.814119 0.93589
512 1 0.132687 0.949198 0.94203
495 1 0.196256 0.870615 0.804726
502 1 0.133447 0.755513 0.878599
996 1 0.191932 0.812834 0.877255
394 1 0.0626101 0.936295 0.988202
507 1 0.0730528 0.882588 0.931809
498 1 0.0614218 0.811939 0.87591
491 1 0.0754721 0.875629 0.818782
509 1 0.133896 0.866135 0.877141
496 1 0.190285 0.936825 0.876887
475 1 0.132469 0.930877 0.816596
99 1 0.0645713 0.9399 0.865599
625 1 0.251611 0.989914 0.866294
504 1 0.115698 0.810947 0.934545
487 1 0.186661 0.757417 0.809107
510 1 0.191712 0.873235 0.934775
1020 1 0.231061 0.946083 0.941667
393 1 0.00676096 0.876642 1.00154
483 1 0.0662782 0.752469 0.805655
499 1 0.0587315 0.752003 0.949497
494 1 0.192507 0.94798 0.754641
493 1 0.135231 0.876498 0.754432
1017 1 0.248175 0.875999 0.874157
486 1 0.248898 0.815175 0.817042
114 1 0.0619549 0.994398 0.808875
1009 1 0.249791 0.756462 0.871175
511 1 0.12405 0.872552 0.996595
558 1 0.431346 0.186452 0.246934
518 1 0.435586 0.0550312 0.00340065
514 1 0.303922 0.0521426 -7.33779e-05
522 1 0.313662 0.190386 0.0105122
525 1 0.369466 0.107993 0.0178628
543 1 0.442127 0.123674 0.185318
524 1 0.255901 0.192869 0.064839
661 1 0.383079 0.246868 0.125962
537 1 0.254313 0.139114 0.133395
521 1 0.252361 0.1167 0.00471038
520 1 0.378733 0.0445342 0.0770123
534 1 0.436015 0.0537834 0.140239
538 1 0.320645 0.187139 0.135033
523 1 0.302149 0.115055 0.068786
527 1 0.435518 0.10765 0.061313
528 1 0.381309 0.181264 0.0539199
542 1 0.452601 0.188857 0.124896
540 1 0.253466 0.192701 0.192994
536 1 0.383248 0.0657867 0.1989
544 1 0.367744 0.196477 0.200233
530 1 0.310214 0.0527891 0.121543
539 1 0.320463 0.117227 0.178748
541 1 0.386058 0.13707 0.121657
663 1 0.436539 0.240054 0.188607
531 1 0.317654 0.00814858 0.189438
1049 1 0.497072 0.120874 0.113913
532 1 0.253307 0.0534203 0.189916
709 1 0.359852 0.240386 0.492266
555 1 0.299061 0.122678 0.311794
559 1 0.439864 0.132143 0.325224
589 1 0.366755 0.138381 0.493994
560 1 0.377728 0.186884 0.313203
552 1 0.432225 0.0729196 0.261293
550 1 0.501605 0.0634074 0.320824
576 1 0.36308 0.180765 0.424249
1097 1 0.491977 0.120224 0.496127
568 1 0.377858 0.066524 0.43418
562 1 0.371718 0.0620964 0.311099
566 1 0.436753 0.0667606 0.381268
574 1 0.43108 0.198217 0.377536
677 1 0.304974 0.183553 0.257084
1057 1 0.494786 0.00855966 0.26209
1076 1 0.495074 0.0624563 0.435068
571 1 0.304148 0.131702 0.428453
561 1 0.260358 0.0537071 0.436626
564 1 0.309575 0.0657298 0.371536
573 1 0.373998 0.120623 0.365819
575 1 0.441129 0.131554 0.43204
557 1 0.369237 0.133537 0.25504
570 1 0.310559 0.186918 0.363924
572 1 0.251597 0.197648 0.434031
577 1 0.254298 -0.00208328 0.500099
590 1 0.426224 0.193943 0.492621
578 1 0.324276 0.0703267 0.49673
551 1 0.437579 0.00269587 0.322308
546 1 0.320517 0.0711915 0.252265
727 1 0.439467 0.240398 0.676137
605 1 0.372167 0.121715 0.621924
621 1 0.379683 0.128235 0.742287
607 1 0.432523 0.127514 0.678379
587 1 0.31115 0.120401 0.562295
579 1 0.325352 0.00926263 0.554876
586 1 0.29971 0.186999 0.505487
596 1 0.26813 0.0584701 0.680873
594 1 0.318032 0.0619378 0.618813
622 1 0.437994 0.182622 0.742575
584 1 0.382423 0.0646572 0.555877
600 1 0.356762 0.0594426 0.694531
1233 1 0.493585 0.246047 0.613943
591 1 0.431462 0.127244 0.555321
608 1 0.369558 0.194119 0.684128
602 1 0.315946 0.1898 0.627011
592 1 0.363855 0.187877 0.561023
597 1 0.37492 0.00732652 0.630223
606 1 0.443286 0.183191 0.612123
598 1 0.437032 0.0618367 0.630498
603 1 0.312404 0.132113 0.686199
711 1 0.42718 0.24589 0.5555
588 1 0.252343 0.185487 0.571752
601 1 0.254753 0.12289 0.628228
583 1 0.438483 0.0068233 0.568199
604 1 0.253134 0.185944 0.684888
1108 1 0.495947 0.0560396 0.695099
617 1 0.254569 0.137894 0.748556
580 1 0.259267 0.0585841 0.557788
1249 1 0.495038 0.241615 0.748516
618 1 0.312572 0.199717 0.747469
1100 1 0.500142 0.17826 0.554123
1116 1 0.496565 0.185009 0.686429
721 1 0.253328 0.24819 0.621377
582 1 0.445224 0.0564024 0.498374
614 1 0.433544 0.0575664 0.751401
639 1 0.428214 0.112038 0.951561
641 1 0.249914 0.233402 0.87794
753 1 0.313182 0.174834 0.893709
1145 1 0.482501 0.118477 0.880693
619 1 0.316987 0.124423 0.828609
1129 1 0.497107 0.123706 0.756199
624 1 0.367204 0.182615 0.802595
1265 1 0.490647 0.243114 0.865156
634 1 0.372598 0.175892 0.948947
632 1 0.366783 0.0535703 0.945825
635 1 0.313667 0.116477 0.948706
616 1 0.372728 0.0654731 0.805813
1124 1 0.498305 0.0696645 0.817069
631 1 0.426525 -0.00119308 0.937172
623 1 0.436884 0.126409 0.815052
1137 1 0.493431 0.000888171 0.86433
638 1 0.428823 0.191141 0.866022
637 1 0.37993 0.124958 0.884508
628 1 0.263761 0.0574976 0.929277
626 1 0.322264 0.0586118 0.875462
630 1 0.432178 0.052263 0.874024
1148 1 0.498042 0.190606 0.928292
611 1 0.314322 -0.00215988 0.816976
612 1 0.252693 0.0525453 0.812139
526 1 0.443139 0.191462 0.992303
613 1 0.371198 0.00298656 0.758877
610 1 0.309738 0.0742819 0.753089
645 1 0.370542 0.241718 0.997158
759 1 0.442187 0.246558 0.931496
640 1 0.308158 0.242656 0.935665
739 1 0.313981 0.242998 0.814646
1121 1 0.48855 0.00482544 0.755715
1172 1 0.481988 0.313494 0.185628
1068 1 0.495718 0.259597 0.242861
1193 1 0.496517 0.377806 0.237589
667 1 0.310666 0.379479 0.186845
665 1 0.305275 0.378982 0.0471581
669 1 0.378353 0.436561 0.0509868
668 1 0.251394 0.440152 0.20129
791 1 0.435516 0.498997 0.179901
643 1 0.319052 0.257789 0.0737459
659 1 0.310935 0.256075 0.19898
678 1 0.426766 0.376493 0.184367
672 1 0.368185 0.44001 0.184526
656 1 0.301998 0.498994 0.0778704
648 1 0.372864 0.315837 0.0539357
662 1 0.434476 0.310737 0.115535
670 1 0.429355 0.376502 0.0510144
1177 1 0.439359 0.437597 0.113007
666 1 0.309276 0.439193 0.129103
658 1 0.307834 0.323659 0.123146
1163 1 0.495509 0.493058 0.130034
664 1 0.383064 0.298534 0.192696
775 1 0.357996 0.38256 0.105368
1169 1 0.498114 0.257019 0.120544
647 1 0.430871 0.252226 0.0532225
654 1 0.496613 0.421932 0.0554895
685 1 0.378965 0.313506 0.317351
683 1 0.317506 0.375793 0.317115
1185 1 0.435028 0.312027 0.251616
682 1 0.316746 0.49919 0.314035
705 1 0.257591 0.25372 0.493628
688 1 0.372297 0.439449 0.313661
674 1 0.373694 0.376224 0.250391
690 1 0.310463 0.309398 0.37172
714 1 0.310334 0.436037 0.493751
701 1 0.376924 0.377077 0.377991
679 1 0.43542 0.377013 0.3164
1188 1 0.447285 0.254371 0.322495
675 1 0.303444 0.255352 0.314217
703 1 0.362572 0.317472 0.436205
694 1 0.436444 0.302878 0.383965
699 1 0.318217 0.385289 0.431537
696 1 0.313734 0.2529 0.424557
698 1 0.306905 0.439834 0.367482
702 1 0.437781 0.444248 0.377441
717 1 0.365278 0.374575 0.494032
1329 1 0.494968 0.500541 0.367206
691 1 0.255561 0.318274 0.43102
1209 1 0.435088 0.375979 0.443958
680 1 0.370777 0.257771 0.263107
704 1 0.381029 0.436429 0.437837
693 1 0.373835 0.254982 0.368886
1204 1 0.500078 0.319832 0.44151
687 1 0.493393 0.370596 0.374546
681 1 0.305333 0.317542 0.259845
695 1 0.440989 0.251977 0.44436
686 1 0.434845 0.444364 0.255085
713 1 0.257247 0.373676 0.500048
1196 1 0.490267 0.433141 0.31456
817 1 0.254336 0.49641 0.384279
823 1 0.437591 0.498001 0.43962
710 1 0.423403 0.313192 0.496368
789 1 0.324025 0.440969 0.249973
853 1 0.376441 0.4982 0.631278
715 1 0.312232 0.370307 0.564103
707 1 0.314538 0.25544 0.566862
741 1 0.372989 0.258305 0.743782
746 1 0.307122 0.43106 0.751082
720 1 0.369445 0.431173 0.553497
712 1 0.371784 0.317551 0.566668
733 1 0.381695 0.379247 0.631328
719 1 0.43457 0.370826 0.559493
734 1 0.437702 0.433318 0.642713
722 1 0.295738 0.317966 0.625823
723 1 0.310223 0.255655 0.685745
726 1 0.4442 0.313343 0.615003
731 1 0.30998 0.374278 0.685734
730 1 0.315446 0.448451 0.620166
736 1 0.367041 0.434891 0.689437
735 1 0.434251 0.367288 0.691766
824 1 0.378696 0.500034 0.498556
706 1 0.313193 0.307626 0.504525
1220 1 0.487696 0.297312 0.541855
728 1 0.364996 0.313869 0.684678
837 1 0.295765 0.494928 0.5516
1244 1 0.496752 0.44037 0.697062
839 1 0.427012 0.482909 0.56948
1228 1 0.49893 0.441607 0.57216
749 1 0.371318 0.368422 0.748657
750 1 0.431271 0.441817 0.742608
1236 1 0.495425 0.303725 0.68451
725 1 0.376688 0.252948 0.626074
718 1 0.441045 0.432647 0.506933
869 1 0.368032 0.493309 0.748562
738 1 0.307394 0.318905 0.746763
744 1 0.363478 0.310073 0.810369
1161 1 0.501847 0.374406 0.991174
751 1 0.438207 0.37953 0.803958
1281 1 0.48817 0.500499 0.985342
757 1 0.370366 0.252751 0.871839
1273 1 0.495715 0.372706 0.86099
742 1 0.434779 0.313185 0.748387
646 1 0.451132 0.31307 1.00205
747 1 0.310702 0.37385 0.818377
758 1 0.436633 0.310182 0.876445
743 1 0.423317 0.252487 0.806614
752 1 0.369318 0.442781 0.818394
867 1 0.301697 0.493966 0.810107
1260 1 0.44112 0.4381 0.865055
740 1 0.259013 0.308208 0.812825
754 1 0.308771 0.312989 0.879123
760 1 0.385048 0.304761 0.935624
768 1 0.373268 0.440891 0.933415
766 1 0.49131 0.437176 0.928964
642 1 0.308537 0.30873 0.990293
763 1 0.301824 0.377075 0.937218
765 1 0.364086 0.36743 0.882829
767 1 0.441678 0.374648 0.936063
762 1 0.304081 0.443434 0.87311
651 1 0.369894 0.376504 0.99655
871 1 0.431361 0.498289 0.79999
1252 1 0.493231 0.30426 0.806339
653 1 0.441701 0.436672 0.993006
650 1 0.305963 0.450544 0.994784
781 1 0.371215 0.620965 0.00418114
1164 1 0.423533 0.501644 0.041596
780 1 0.37039 0.558829 0.0670751
792 1 0.377781 0.504331 0.25139
915 1 0.321816 0.740935 0.186007
917 1 0.370581 0.737985 0.119813
795 1 0.302847 0.62201 0.192007
776 1 0.376677 0.498218 0.128434
919 1 0.432399 0.741277 0.180004
799 1 0.438143 0.629336 0.194449
790 1 0.378506 0.560408 0.18957
1284 1 0.432313 0.560179 0.128983
800 1 0.375774 0.681424 0.188446
797 1 0.374168 0.63018 0.12867
772 1 0.303706 0.633658 0.0466167
783 1 0.434708 0.619878 0.0580478
798 1 0.439559 0.678371 0.119593
784 1 0.371128 0.682185 0.0597361
1305 1 0.486265 0.615299 0.124701
787 1 0.311434 0.507004 0.19535
786 1 0.305142 0.563227 0.121908
794 1 0.305561 0.683474 0.112762
262 1 0.253057 0.570508 0.0620888
903 1 0.44184 0.739185 0.0583626
1292 1 0.497165 0.676617 0.0568456
788 1 0.252721 0.563997 0.199285
902 1 0.372894 0.74957 0.0114334
1300 1 0.493759 0.562022 0.183955
796 1 0.249782 0.689162 0.196305
1298 1 0.491053 0.556048 0.0592527
803 1 0.307387 0.502173 0.442168
806 1 0.444696 0.560517 0.258779
810 1 0.313449 0.690272 0.255855
828 1 0.251281 0.688579 0.434912
825 1 0.250845 0.620194 0.381315
831 1 0.434137 0.622617 0.448253
802 1 0.319892 0.560158 0.256109
827 1 0.309223 0.627597 0.438906
1457 1 0.493712 0.742544 0.378046
811 1 0.306661 0.623838 0.314511
818 1 0.305535 0.558157 0.372183
808 1 0.373916 0.569663 0.317663
838 1 0.444729 0.565133 0.499166
815 1 0.447796 0.617879 0.319766
826 1 0.308147 0.679362 0.373045
816 1 0.376919 0.671146 0.306859
830 1 0.438034 0.686817 0.391554
832 1 0.377453 0.563706 0.449281
1316 1 0.500027 0.635637 0.395487
822 1 0.43075 0.556502 0.382169
964 1 0.381307 0.687543 0.453897
829 1 0.378804 0.625613 0.37532
949 1 0.378795 0.748116 0.375768
947 1 0.318383 0.73698 0.430105
814 1 0.43857 0.683228 0.250161
1353 1 0.499105 0.641116 0.504447
931 1 0.313284 0.739666 0.324407
821 1 0.364228 0.501592 0.387481
812 1 0.253177 0.684903 0.31437
805 1 0.424811 0.509956 0.318434
845 1 0.312436 0.691094 0.495724
813 1 0.383432 0.613579 0.252601
840 1 0.387225 0.550063 0.561743
870 1 0.432118 0.553102 0.744052
851 1 0.297941 0.501305 0.684432
983 1 0.436254 0.740231 0.692126
848 1 0.441892 0.698064 0.502645
863 1 0.435644 0.615708 0.688573
997 1 0.378708 0.671476 0.697744
1348 1 0.497155 0.547609 0.565988
836 1 0.317458 0.633153 0.569537
843 1 0.377307 0.620031 0.622863
855 1 0.443946 0.503076 0.681713
847 1 0.434728 0.622393 0.560028
963 1 0.312112 0.737925 0.571335
857 1 0.303114 0.687649 0.63401
842 1 0.377049 0.68721 0.554362
1369 1 0.49763 0.627665 0.611226
834 1 0.311965 0.570794 0.514002
864 1 0.326846 0.746497 0.681962
850 1 0.312612 0.561108 0.628859
856 1 0.377771 0.560565 0.681043
861 1 0.309833 0.623819 0.69514
854 1 0.445797 0.563054 0.624121
862 1 0.427663 0.686418 0.621966
841 1 0.251715 0.628424 0.503275
967 1 0.438419 0.745865 0.566974
874 1 0.369576 0.739036 0.748259
846 1 0.372879 0.623703 0.505582
878 1 0.496678 0.6822 0.684673
1380 1 0.486511 0.56318 0.807664
866 1 0.304057 0.555615 0.748852
879 1 0.431555 0.620991 0.80819
1521 1 0.492534 0.741483 0.878132
773 1 0.360222 0.509768 0.997663
1011 1 0.315302 0.746769 0.933373
896 1 0.370038 0.687141 0.943214
770 1 0.308397 0.569678 0.993289
872 1 0.37688 0.558853 0.80714
886 1 0.424391 0.565215 0.87108
778 1 0.310227 0.694425 0.998458
875 1 0.297926 0.625413 0.812805
880 1 0.371233 0.684972 0.814001
891 1 0.308093 0.636133 0.934582
859 1 0.307218 0.688354 0.754772
895 1 0.434929 0.624949 0.939053
877 1 0.363021 0.614024 0.755302
887 1 0.422927 0.506509 0.925535
882 1 0.295778 0.563814 0.864484
890 1 0.305969 0.687616 0.867145
893 1 0.369638 0.626812 0.873958
894 1 0.435398 0.683004 0.867695
888 1 0.367813 0.56994 0.934723
779 1 0.430499 0.566524 0.994864
999 1 0.429295 0.736272 0.801159
1276 1 0.491177 0.502117 0.867062
1385 1 0.435614 0.675971 0.751816
885 1 0.355616 0.510884 0.877372
1013 1 0.37187 0.74421 0.872915
774 1 0.48889 0.55909 0.92519
1015 1 0.432609 0.742612 0.948613
892 1 0.252454 0.692888 0.936733
883 1 0.297902 0.502987 0.937768