ITEM: TIMESTEP
0
ITEM: NUMBER OF ATOMS
360
ITEM: BOX BOUNDS pp pp pp
0.0000000000000000e+00 6.6943295008216896e+00
0.0000000000000000e+00 6.6943295008216896e+00
0.0000000000000000e+00 6.6943295008216896e+00
ITEM: ATOMS id type xs ys zs
307 2 0.263245 0.0306051 0.134358
30 1 0.279821 0.234369 0.197644
209 1 0.288516 0.131092 0.0498901
96 1 0.150535 0.193521 0.101281
262 1 0.168482 0.0682158 0.200633
273 1 0.0138786 0.084199 0.195748
147 1 0.00650192 0.0244239 0.0420684
308 2 0.102929 0.227208 0.397635
7 1 0.194402 0.128755 0.34257
143 1 0.0274656 0.116817 0.349789
179 1 0.304164 0.0445223 0.439652
357 2 0.276446 0.0460263 0.290329
80 1 0.260978 0.193965 0.475559
108 1 0.331186 0.187046 0.332257
24 1 0.121103 0.122199 0.472132
237 1 0.106255 0.214847 0.263583
356 2 0.0883961 0.0290254 0.289455
352 2 0.175636 0.0237205 0.408089
266 1 0.281006 0.185721 0.681612
150 1 0.00871608 0.244294 0.644411
42 1 0.0900206 0.109346 0.61814
11 1 0.227803 0.0677125 0.589847
317 2 0.180893 0.120028 0.721152
332 2 0.185961 0.201318 0.607585
8 1 0.134308 0.233494 0.737058
201 1 0.288422 0.0513116 0.913285
50 1 0.0287213 0.0982906 0.916916
350 2 0.111895 0.242381 0.855909
337 2 0.313752 0.172897 0.893918
246 1 0.173319 0.13719 0.848997
33 1 0.213299 0.22356 0.962278
97 1 0.111455 0.0195553 0.78535
34 1 0.16346 0.0480438 0.991319
111 1 0.0025359 0.160168 0.773702
21 1 0.281834 0.0573014 0.761631
208 1 0.0817981 0.373514 0.0695291
299 2 0.162451 0.30438 0.177477
218 1 0.253754 0.338316 0.0669134
254 1 0.250032 0.403542 0.206432
79 1 0.106152 0.498648 0.158588
196 1 0.276471 0.494632 0.0765953
36 1 0.0541108 0.360272 0.227781
241 1 0.150168 0.456586 0.30159
76 1 0.310709 0.485332 0.32515
177 1 0.20685 0.285041 0.354215
302 2 0.273168 0.321461 0.464226
130 1 0.220932 0.456257 0.454342
213 1 0.0607253 0.361924 0.388342
90 1 0.0713848 0.3967 0.671989
13 1 0.208512 0.341034 0.64437
292 2 0.138749 0.423811 0.549567
116 1 0.283057 0.46157 0.605879
102 1 0.143436 0.291918 0.508618
176 1 0.255219 0.449354 0.779472
197 1 0.149876 0.369782 0.923211
139 1 0.0420451 0.263374 0.958311
122 1 0.263083 0.286725 0.840146
191 1 0.308917 0.401602 0.935025
330 2 0.15007 0.362259 0.786477
215 1 0.0224238 0.327695 0.811543
101 1 0.0879664 0.485104 0.814038
185 1 0.247299 0.551836 0.211191
207 1 0.0500104 0.636698 0.169938
164 1 0.193434 0.704528 0.1058
331 2 0.169282 0.582937 0.0820595
230 1 0.0609445 0.679867 0.011892
224 1 0.093498 0.51475 0.00360064
81 1 0.232156 0.597254 0.382746
157 1 0.0324663 0.505136 0.412239
32 1 0.0433089 0.741701 0.306596
23 1 0.11214 0.601224 0.313416
247 1 0.0609442 0.659064 0.447389
140 1 0.191061 0.739525 0.379536
173 1 0.289948 0.726153 0.494566
170 1 0.262919 0.704794 0.25324
68 1 0.0279222 0.515941 0.557424
181 1 0.0645326 0.649141 0.637283
109 1 0.189975 0.60077 0.529303
360 2 0.155036 0.717416 0.553669
206 1 0.155251 0.526539 0.673555
268 1 0.224152 0.676317 0.662042
297 2 0.287805 0.587101 0.601237
180 1 0.299158 0.672981 0.808538
168 1 0.12758 0.640968 0.798683
305 2 0.0630798 0.602308 0.914361
328 2 0.226688 0.569279 0.764817
88 1 0.209256 0.527024 0.9042
310 2 0.169518 0.715167 0.891947
155 1 0.249708 0.630127 0.995347
234 1 0.31104 0.788914 0.0486197
219 1 0.141505 0.945292 0.105456
325 2 0.214227 0.843143 0.103931
272 1 0.0529501 0.789077 0.114464
46 1 0.298707 0.92729 0.187418
70 1 0.03031 0.917103 0.235448
74 1 0.150116 0.806839 0.225852
242 1 0.255319 0.922531 0.00517967
204 1 0.238812 0.889662 0.408981
115 1 0.177043 0.943973 0.296591
214 1 0.0573159 0.960449 0.395146
303 2 0.104159 0.847773 0.347426
341 2 0.262313 0.836354 0.280033
346 2 0.0052831 0.768121 0.443536
117 1 0.117888 0.812421 0.481182
190 1 0.249224 0.837459 0.576965
358 2 0.278944 0.94322 0.513843
220 1 0.145929 0.9622 0.542427
243 1 0.103651 0.806642 0.64269
152 1 0.199599 0.924702 0.693142
104 1 0.0382566 0.963326 0.656997
260 1 0.326203 0.818035 0.730589
151 1 0.00105128 0.895352 0.522132
138 1 0.0639752 0.874132 0.777187
86 1 0.197427 0.903323 0.855147
216 1 0.0485826 0.947808 0.919746
248 1 0.286831 0.790066 0.897413
210 1 0.186208 0.77714 0.767316
290 2 0.0187087 0.831672 0.994838
95 1 0.053414 0.754277 0.87113
184 1 0.151211 0.806056 0.979396
55 1 0.407296 0.200396 0.10752
265 1 0.502635 0.0811947 0.126339
189 1 0.355806 0.0754266 0.199779
320 2 0.619196 0.12594 0.155385
285 1 0.548741 0.167751 0.0139921
255 1 0.373884 0.00944837 0.0500245
43 1 0.634398 0.0273099 0.0480909
163 1 0.531569 0.165673 0.391481
27 1 0.627882 0.0144567 0.409359
304 2 0.402493 0.133386 0.438396
107 1 0.427939 0.0424597 0.342639
134 1 0.460382 0.190966 0.256661
277 1 0.596684 0.07583 0.260135
26 1 0.467131 0.0927598 0.675161
87 1 0.513785 0.188932 0.54239
175 1 0.611064 0.048533 0.598675
294 2 0.56178 0.206434 0.670996
145 1 0.37223 0.146217 0.558891
137 1 0.472831 0.0415498 0.510893
324 2 0.613348 0.113853 0.501688
269 1 0.590096 0.0517157 0.907819
231 1 0.45472 0.0454558 0.829077
38 1 0.4169 0.123054 0.954094
198 1 0.535472 0.177931 0.801868
53 1 0.384722 0.191042 0.803042
223 1 0.654304 0.206271 0.89958
141 1 0.585628 0.0138736 0.758743
327 2 0.46602 0.000851772 0.951898
158 1 0.555286 0.431038 0.197009
353 2 0.363406 0.401307 0.070509
314 2 0.594691 0.392459 0.0761349
63 1 0.403137 0.346646 0.184153
129 1 0.570153 0.26968 0.166402
199 1 0.478643 0.34665 0.0538061
126 1 0.656279 0.304071 0.00540289
67 1 0.589538 0.309156 0.476624
311 2 0.425062 0.439627 0.27802
347 2 0.491254 0.395638 0.427272
78 1 0.497102 0.332294 0.312855
59 1 0.638799 0.292306 0.318475
233 1 0.350467 0.34312 0.345279
267 1 0.619492 0.446339 0.391854
148 1 0.362011 0.414985 0.479263
54 1 0.427617 0.26268 0.444154
335 2 0.565584 0.46216 0.647975
100 1 0.41726 0.413634 0.670813
313 2 0.461888 0.328734 0.565964
167 1 0.503755 0.467751 0.536762
250 1 0.579161 0.333502 0.626206
64 1 0.656416 0.443851 0.544305
16 1 0.44868 0.262717 0.686041
22 1 0.336198 0.293167 0.584557
343 2 0.33979 0.313646 0.734008
312 2 0.433583 0.401787 0.934747
162 1 0.364149 0.267644 0.973326
256 1 0.421149 0.348964 0.81868
323 2 0.534042 0.306564 0.761701
156 1 0.562961 0.437038 0.926886
71 1 0.573287 0.420794 0.769444
57 1 0.514638 0.27766 0.909303
322 2 0.628511 0.33354 0.871584
288 1 0.65689 0.285986 0.756092
289 2 0.48082 0.636017 0.0421852
44 1 0.639553 0.63669 0.0397636
121 1 0.514767 0.652369 0.165348
132 1 0.369175 0.652982 0.117864
227 1 0.535719 0.523828 0.0636331
73 1 0.400072 0.51756 0.00196267
253 1 0.662117 0.67976 0.198091
49 1 0.397935 0.503371 0.167089
10 1 0.585486 0.685507 0.32888
283 1 0.448694 0.665887 0.405006
186 1 0.550942 0.549899 0.2708
321 2 0.466813 0.733209 0.291508
60 1 0.593003 0.578087 0.448847
112 1 0.388617 0.606001 0.273681
93 1 0.346153 0.57208 0.484221
232 1 0.581654 0.737607 0.487716
270 1 0.457209 0.518704 0.388957
51 1 0.481749 0.621956 0.547784
193 1 0.559454 0.719456 0.64218
15 1 0.346709 0.570648 0.707738
12 1 0.520242 0.572749 0.678086
103 1 0.37108 0.703543 0.620497
301 2 0.412036 0.534308 0.603382
355 2 0.440055 0.747172 0.501918
135 1 0.664763 0.615407 0.585055
52 1 0.391799 0.67949 0.952938
298 2 0.561048 0.546986 0.806732
37 1 0.604321 0.680072 0.814946
258 1 0.520552 0.592373 0.924651
194 1 0.452741 0.660597 0.806086
316 2 0.338653 0.577945 0.907291
35 1 0.428679 0.508265 0.839226
287 1 0.541184 0.813211 0.214234
212 1 0.622517 0.928459 0.167141
39 1 0.611124 0.794651 0.0885342
205 1 0.446176 0.957465 0.186073
236 1 0.515622 0.91933 0.0477531
348 2 0.403355 0.87419 0.106039
25 1 0.374818 0.796699 0.199271
9 1 0.47077 0.772348 0.0726541
326 2 0.485636 0.942091 0.418456
114 1 0.38149 0.898192 0.32639
195 1 0.550552 0.936568 0.30789
48 1 0.587508 0.888375 0.481017
58 1 0.509209 0.813522 0.379319
99 1 0.384245 0.874839 0.474982
178 1 0.660405 0.825009 0.30931
110 1 0.354143 0.759743 0.364697
40 1 0.490227 0.841115 0.585749
3 1 0.454797 0.927345 0.707236
188 1 0.613871 0.884245 0.668805
306 2 0.367118 0.853806 0.603037
149 1 0.352623 0.982716 0.616757
131 1 0.527217 0.756688 0.921607
28 1 0.525314 0.90506 0.864823
300 2 0.409636 0.776646 0.868969
136 1 0.403796 0.872432 0.967375
105 1 0.66648 0.824085 0.831528
128 1 0.49661 0.795634 0.767443
65 1 0.653203 0.911504 0.952328
62 1 0.345011 0.930748 0.824702
202 1 0.713179 0.178665 0.0677266
1 1 0.800988 0.0573462 0.0275412
222 1 0.709981 0.186275 0.219924
211 1 0.934731 0.16597 0.0370752
166 1 0.741885 0.0400316 0.183842
146 1 0.868459 0.128718 0.228739
89 1 0.995239 0.243194 0.155351
203 1 0.869255 0.146805 0.398172
69 1 0.6793 0.175407 0.410966
183 1 0.931887 0.0061361 0.319444
263 1 0.753591 0.0600497 0.340218
282 1 0.991593 0.200393 0.477181
349 2 0.781705 0.12392 0.632829
309 2 0.973022 0.0650856 0.688092
342 2 0.910752 0.239955 0.745298
5 1 0.667718 0.189958 0.587603
133 1 0.898755 0.151573 0.593734
56 1 0.674686 0.132086 0.731327
252 1 0.859758 0.104479 0.739899
75 1 0.7917 0.232244 0.516529
72 1 0.758061 0.0699183 0.509607
284 1 0.983934 0.0443575 0.507471
336 2 0.92529 0.219593 0.899033
169 1 0.81073 0.235314 0.971332
165 1 0.785566 0.215268 0.818627
228 1 0.878561 0.107264 0.894102
160 1 0.742709 0.0657314 0.863334
192 1 0.956131 0.000316511 0.805144
275 1 0.922044 0.344408 0.0454373
225 1 0.907152 0.367702 0.204631
261 1 0.716638 0.340064 0.149937
119 1 0.808311 0.448505 0.105595
345 2 0.7736 0.353087 0.0155036
18 1 0.95709 0.488969 0.11725
66 1 0.678736 0.464368 0.0130945
276 1 0.83666 0.250834 0.147104
226 1 0.803778 0.4244 0.316255
200 1 0.798554 0.273012 0.321691
286 1 0.894908 0.304307 0.42834
120 1 0.748427 0.353813 0.437256
85 1 0.877446 0.444068 0.448601
344 2 0.946136 0.414062 0.347602
291 2 0.686706 0.433314 0.261809
94 1 0.968822 0.254669 0.309053
319 2 0.918473 0.472096 0.581458
124 1 0.71449 0.409 0.687535
359 2 0.692156 0.312421 0.548396
281 1 0.815915 0.372804 0.576404
6 1 0.905452 0.356817 0.686603
2 1 0.784511 0.253026 0.665103
171 1 0.992222 0.369424 0.525822
338 2 0.938382 0.438311 0.799886
245 1 0.881601 0.333273 0.857243
251 1 0.845657 0.44813 0.961253
296 2 0.787462 0.345815 0.771272
19 1 0.739125 0.36614 0.890142
329 2 0.704213 0.460016 0.808103
264 1 0.827609 0.4693 0.784751
123 1 0.991821 0.42585 0.920181
271 1 0.802307 0.589047 0.0442312
182 1 0.920349 0.694406 0.0804985
333 2 0.835681 0.700732 0.16984
249 1 0.836458 0.569281 0.200446
127 1 0.764342 0.744103 0.0567064
239 1 0.667426 0.528701 0.154544
47 1 0.702442 0.561172 0.324606
125 1 0.855799 0.57424 0.363244
83 1 0.757483 0.53937 0.475375
274 1 0.878651 0.7198 0.438693
118 1 0.719469 0.682275 0.441491
153 1 0.984854 0.511392 0.268479
144 1 0.784425 0.706902 0.315205
295 2 0.977892 0.602916 0.370254
351 2 0.931673 0.654184 0.262274
280 1 0.809355 0.523991 0.619327
238 1 0.696736 0.553527 0.719377
354 2 0.930195 0.633186 0.633255
259 1 0.828283 0.682076 0.585643
235 1 0.70826 0.71542 0.707956
61 1 0.962275 0.515424 0.697028
217 1 0.917899 0.587011 0.500869
77 1 0.859625 0.620979 0.738874
172 1 0.978452 0.713609 0.742375
82 1 0.993818 0.742545 0.561322
154 1 0.916039 0.711025 0.926589
340 2 0.741564 0.638614 0.806777
106 1 0.821227 0.596728 0.891227
31 1 0.956863 0.578549 0.839622
278 1 0.714546 0.713063 0.917959
142 1 0.944754 0.574428 0.997757
257 1 0.671842 0.559626 0.874804
161 1 0.912066 0.85654 0.0838589
113 1 0.901405 0.783812 0.221598
41 1 0.748309 0.811699 0.195632
4 1 0.87795 0.994454 0.157507
159 1 0.751983 0.91288 0.0866667
45 1 0.773319 0.828431 0.427137
14 1 0.928608 0.847262 0.368432
187 1 0.795036 0.918837 0.295292
229 1 0.855448 0.960181 0.455528
318 2 0.728341 0.944036 0.40593
339 2 0.676244 0.950751 0.273757
293 2 0.863449 0.960276 0.728416
279 1 0.849189 0.99439 0.607527
20 1 0.779533 0.842139 0.671547
84 1 0.933624 0.844214 0.685024
98 1 0.727496 0.929948 0.548415
92 1 0.865147 0.835649 0.548975
174 1 0.709761 0.776456 0.565105
221 1 0.730519 0.993871 0.7129
29 1 0.793838 0.910101 0.821994
17 1 0.892935 0.962695 0.950253
240 1 0.927826 0.856141 0.84606
91 1 0.806352 0.84259 0.957581
244 1 0.808036 0.759295 0.80297
315 2 0.768177 0.958911 0.952741
334 2 0.678152 0.955681 0.833807
ITEM: TIMESTEP
70000
ITEM: NUMBER OF ATOMS
360
ITEM: BOX BOUNDS pp pp pp
0.0000000000000000e+00 6.6943295008216896e+00
0.0000000000000000e+00 6.6943295008216896e+00
0.0000000000000000e+00 6.6943295008216896e+00
ITEM: ATOMS id type xs ys zs
143 1 0.128266 0.101443 0.23402
357 2 0.102696 0.217917 0.156338
42 1 0.234901 0.235154 0.25141
262 1 0.0519556 0.110731 0.0850755
242 1 0.203758 0.163419 0.0982792
286 1 0.107312 0.196873 0.354154
179 1 0.147261 0.0469486 0.399899
343 2 0.0472894 0.129251 0.457537
107 1 0.311717 0.023909 0.386852
54 1 0.267578 0.174257 0.399414
284 1 -0.00710666 0.0929699 0.330901
24 1 0.159464 0.194219 0.491078
7 1 0.287014 0.094516 0.253404
233 1 0.27485 0.0956209 0.5671
62 1 0.19455 0.107115 0.708408
11 1 0.115432 0.0547882 0.549953
313 2 0.139797 0.171505 0.622244
282 1 0.0128922 0.203597 0.583835
279 1 0.0397429 0.0715522 0.678879
33 1 0.288573 0.238781 0.710025
209 1 0.206963 0.208622 0.944319
317 2 0.225617 0.217004 0.816997
136 1 0.23739 0.0786136 0.854116
337 2 0.0213564 0.0943838 0.964902
201 1 0.105299 0.151297 0.83693
309 2 0.264562 -0.00759848 0.769832
46 1 0.162148 0.0445032 1.00074
55 1 0.188962 0.319086 0.12128
213 1 0.0665158 0.407052 0.0591085
197 1 0.247056 0.406766 0.00294764
308 2 0.129539 0.427709 0.178004
199 1 0.328611 0.27065 0.0407639
94 1 0.0764471 0.250887 0.030754
76 1 0.235337 0.401184 0.240557
339 2 0.0682917 0.380663 0.367776
171 1 0.0483947 0.301023 0.466955
89 1 0.194468 0.324524 0.379492
173 1 0.0914465 0.439482 0.47503
332 2 -0.00792003 0.264126 0.343943
130 1 0.257454 0.460508 0.407884
23 1 0.133755 0.484135 0.310132
237 1 0.0983767 0.327364 0.25188
102 1 0.142918 0.32408 0.589755
108 1 0.263294 0.395857 0.663059
22 1 0.290476 0.27957 0.539155
206 1 0.0905673 0.466221 0.622758
292 2 0.0183578 0.367436 0.571699
295 2 0.221605 0.386812 0.507931
13 1 0.00356753 0.348615 0.708395
116 1 0.136067 0.262849 0.733566
34 1 0.0914593 0.298586 0.889741
122 1 0.26775 0.34641 0.823445
215 1 0.22881 0.492737 0.860596
299 2 0.156154 0.336094 0.982962
112 1 0.136729 0.417019 0.762794
168 1 0.0940655 0.441709 0.922745
330 2 0.0200188 0.38614 0.836633
272 1 0.190222 0.507049 0.108328
328 2 0.142476 0.613604 0.147695
74 1 0.296291 0.635977 0.0527613
225 1 0.0521851 0.533266 0.172277
25 1 0.238689 0.716039 0.175451
70 1 0.0686022 0.71674 0.172805
182 1 0.162517 0.732047 0.0428845
185 1 0.235506 0.569789 0.234047
207 1 0.0896247 0.577802 0.0054281
32 1 0.194977 0.601762 0.414021
125 1 0.0860613 0.635386 0.297009
204 1 0.206661 0.727388 0.327713
351 2 0.0594153 0.568905 0.41212
194 1 0.321854 0.706454 0.442562
45 1 0.0622162 0.707649 0.44217
306 2 0.325192 0.551395 0.485347
81 1 0.334814 0.578832 0.358588
297 2 0.106772 0.588436 0.656477
190 1 0.253096 0.654568 0.564281
243 1 0.0809296 0.718851 0.614213
117 1 0.0982699 0.590471 0.537069
176 1 0.223489 0.536562 0.707362
109 1 0.222779 0.499715 0.556585
180 1 0.193006 0.706358 0.738004
216 1 0.00310779 0.680805 0.748617
331 2 0.265089 0.740724 0.837759
172 1 0.187861 0.648075 0.905386
316 2 0.226112 0.541165 0.975535
181 1 0.103536 0.575542 0.795148
305 2 0.101037 0.717386 0.825521
115 1 0.100056 0.966589 0.142471
114 1 0.171231 0.848061 0.193657
113 1 0.0311459 0.85508 0.0709663
265 1 0.186445 0.881861 0.0339801
303 2 0.284244 0.821004 0.103111
348 2 0.0321818 0.846223 0.201089
99 1 0.319388 0.854207 0.226639
189 1 0.257831 0.966503 0.131448
144 1 0.0583504 0.788504 0.312952
220 1 0.13647 0.887168 0.383254
137 1 0.212508 0.968461 0.277105
229 1 -0.00117388 0.974381 0.450199
187 1 0.0316487 0.947853 0.291041
214 1 0.185563 0.77314 0.479398
140 1 0.304338 0.862627 0.378825
149 1 0.235139 0.956656 0.497019
235 1 0.245118 0.820017 0.613107
152 1 0.312309 0.961716 0.658146
104 1 0.155768 0.951277 0.645306
151 1 0.0783047 0.870817 0.539339
268 1 0.0948082 0.818821 0.734808
352 2 0.00901903 0.951003 0.618214
289 2 0.186169 0.959205 0.896948
315 2 0.0352737 0.857677 0.833438
86 1 0.0700858 0.928162 0.93231
95 1 0.263004 0.865929 0.76719
192 1 0.0517828 0.76783 0.926006
97 1 0.124321 0.98309 0.792407
138 1 0.18047 0.834748 0.884613
161 1 0.296897 0.786422 0.973349
255 1 0.319296 0.941454 0.897023
326 2 0.460447 0.0571237 0.0674647
202 1 0.55733 0.138744 0.0874488
129 1 0.540695 0.18498 0.231137
177 1 0.376526 0.173574 0.154925
162 1 0.337549 0.0576735 0.0329413
322 2 0.641911 0.245225 0.0741597
38 1 0.406393 0.0150489 0.170585
205 1 0.561771 0.000111716 0.233993
57 1 0.431359 0.168252 0.00951556
27 1 0.541893 0.219784 0.388979
145 1 0.416748 0.177667 0.46158
134 1 0.38313 0.223853 0.303259
5 1 0.537031 0.064579 0.427302
43 1 0.652206 0.0964607 0.299046
277 1 0.443289 0.0747047 0.30728
324 2 0.665669 0.118432 0.42834
26 1 0.413208 0.178849 0.620032
283 1 0.395212 0.0134768 0.527604
163 1 0.527083 0.0723908 0.581822
294 2 0.41077 0.0538313 0.64963
226 1 0.635557 0.195463 0.519264
48 1 0.500904 0.0763337 0.740946
133 1 0.638775 0.0160964 0.692461
87 1 0.564909 0.231886 0.639347
178 1 0.660084 0.0394498 0.52345
269 1 0.657093 0.0893574 0.830131
191 1 0.52535 0.174967 0.865014
53 1 0.425559 0.0600621 0.904296
212 1 0.555051 0.0505136 0.967259
347 2 0.601634 0.194449 0.762147
256 1 0.338423 0.187295 0.884051
198 1 0.427717 0.231558 0.76193
266 1 0.346028 0.0898367 0.752482
158 1 0.598312 0.360555 0.181098
227 1 0.50122 0.501631 0.14021
311 2 0.475701 0.387594 0.188454
126 1 0.491928 0.28568 0.0955591
353 2 0.398104 0.392514 0.0237918
230 1 0.352654 0.45922 0.125516
239 1 0.64758 0.435654 0.0254965
30 1 0.359537 0.323612 0.194479
63 1 0.485486 0.343368 0.30223
148 1 0.47276 0.473178 0.417627
302 2 0.60189 0.288205 0.294581
119 1 0.614555 0.374189 0.403535
254 1 0.381882 0.462528 0.281768
186 1 0.572163 0.476608 0.293693
80 1 0.370884 0.344257 0.398433
93 1 0.36568 0.43178 0.521758
167 1 0.533583 0.391722 0.676235
338 2 0.648467 0.471579 0.655164
16 1 0.408477 0.331297 0.640374
67 1 0.523475 0.498754 0.58522
267 1 0.635455 0.375948 0.561396
301 2 0.465184 0.487156 0.725011
78 1 0.485421 0.314435 0.514917
88 1 0.424872 0.388567 0.78822
298 2 0.541331 0.438074 0.873545
223 1 0.567399 0.330297 0.809028
270 1 0.435995 0.303619 0.925401
71 1 0.58498 0.305056 0.959473
196 1 0.505763 0.452173 0.984772
323 2 0.345846 0.399344 0.890662
156 1 0.526205 0.690234 0.170118
251 1 0.634201 0.577034 0.107414
312 2 0.569496 0.576389 0.220913
170 1 0.383051 0.593068 0.190736
100 1 0.466846 0.610399 0.0258387
257 1 0.67548 0.733175 0.112682
132 1 0.390696 0.743541 0.116652
340 2 0.578607 0.680968 0.0310513
49 1 0.481156 0.601169 0.314496
51 1 0.454691 0.599626 0.479324
174 1 0.641118 0.61784 0.322346
321 2 0.5525 0.647157 0.41597
83 1 0.612299 0.527252 0.43137
110 1 0.409551 0.74241 0.272219
260 1 0.403716 0.696048 0.586796
193 1 0.566242 0.685138 0.542454
64 1 0.487547 0.615517 0.696864
103 1 0.376971 0.545323 0.634398
250 1 0.655129 0.564553 0.570474
335 2 0.615879 0.643394 0.674239
128 1 0.351947 0.680913 0.737779
290 2 0.471212 0.724362 0.771969
35 1 0.608319 0.562186 0.941302
155 1 0.479239 0.716851 0.911235
288 1 0.479009 0.571198 0.861342
124 1 0.591168 0.673575 0.796931
164 1 0.349375 0.64746 0.882981
210 1 0.361529 0.526462 0.786876
15 1 0.598254 0.511358 0.768781
12 1 0.362846 0.511656 0.964966
258 1 0.380319 0.897895 0.0693729
9 1 0.54868 0.944295 0.0849185
73 1 0.518017 0.786056 0.0537012
39 1 0.63145 0.876956 0.198314
287 1 0.473732 0.859199 0.201085
106 1 0.653537 0.868703 0.0290993
135 1 0.472157 0.791229 0.435755
195 1 0.455091 0.944701 0.3701
65 1 0.62102 0.941308 0.373261
10 1 0.556238 0.753714 0.30751
280 1 0.637786 0.792303 0.44784
358 2 0.36333 0.964579 0.283311
3 1 0.387473 0.82329 0.684407
325 2 0.482043 0.823473 0.571599
98 1 0.633036 0.846574 0.593276
188 1 0.505811 0.934605 0.657277
40 1 0.3683 0.857513 0.527141
248 1 0.541561 0.765882 0.677155
58 1 0.532034 0.916758 0.500808
234 1 0.473048 0.899627 0.953675
184 1 0.376169 0.801144 0.848653
37 1 0.519756 0.84872 0.805972
21 1 0.411385 0.957846 0.775813
52 1 0.625959 0.778518 0.898981
236 1 0.619165 0.937714 0.897747
300 2 0.518407 0.981429 0.842969
231 1 0.66627 0.878817 0.768662
222 1 0.750778 0.172402 0.090212
273 1 0.878356 0.10524 0.178851
183 1 0.991307 0.204925 0.235451
228 1 0.91978 0.197345 0.0562726
356 2 0.75235 0.128103 0.224674
59 1 0.679904 0.226693 0.202722
131 1 0.670188 0.0513379 0.134738
17 1 0.817156 0.0208816 0.0754539
346 2 1.00354 0.0602075 0.209654
146 1 0.83691 0.254456 0.201728
75 1 0.701261 0.223729 0.380156
203 1 0.836841 0.154975 0.326723
344 2 0.898141 0.0793156 0.422425
166 1 0.749535 0.0256468 0.391504
2 1 0.942293 0.19395 0.426935
120 1 0.790755 0.136344 0.499056
359 2 0.820736 0.246233 0.424962
72 1 0.957135 0.0810491 0.538669
56 1 0.865944 0.172096 0.642168
175 1 0.713877 0.183592 0.699356
349 2 0.74929 0.0938609 0.606261
150 1 0.982192 0.193413 0.753682
160 1 0.890187 0.0171793 0.652102
111 1 0.843852 0.183807 0.796327
28 1 0.79451 0.0508187 0.767596
285 1 0.736365 0.0130992 0.94807
246 1 0.966619 0.201455 0.903371
91 1 0.864568 0.0954316 0.936227
327 2 0.756689 0.129867 0.877538
8 1 1.00639 0.0462888 0.851841
165 1 0.686408 0.244042 0.845646
169 1 0.819696 0.249539 0.942751
1 1 0.660599 0.161809 0.974986
342 2 0.918288 0.0869805 0.765831
275 1 0.979851 0.308218 0.133601
200 1 0.841583 0.395816 0.166931
208 1 0.93718 0.480252 0.0678011
66 1 0.7296 0.328551 0.102167
350 2 0.849293 0.310391 0.0680793
47 1 0.716804 0.482953 0.213632
36 1 0.880479 0.305856 0.330329
60 1 0.777734 0.36947 0.457746
314 2 0.697351 0.453201 0.371113
79 1 0.978522 0.408746 0.26055
153 1 0.833422 0.455507 0.323609
261 1 0.720596 0.349808 0.291766
241 1 0.946405 0.427135 0.431116
360 2 0.843041 0.483132 0.484175
245 1 0.860323 0.322864 0.688181
85 1 0.753273 0.2705 0.581844
90 1 0.926759 0.452479 0.592183
157 1 0.903861 0.305317 0.528601
281 1 0.768343 0.447316 0.608335
6 1 0.666094 0.328766 0.70077
291 2 0.696357 0.470437 0.497127
296 2 0.784066 0.301829 0.799157
139 1 0.902678 0.327353 0.8332
19 1 0.674736 0.414377 0.872294
218 1 0.91921 0.471156 0.891653
123 1 0.785661 0.446246 0.766723
334 2 0.706092 0.304072 0.956017
50 1 0.942843 0.341606 0.986389
276 1 0.796155 0.40078 0.987072
142 1 0.986354 0.696001 0.045103
271 1 0.77719 0.532217 0.0855376
41 1 0.930684 0.639622 0.197606
336 2 0.888085 0.601951 0.0620294
341 2 0.70448 0.637704 0.192096
127 1 0.818785 0.68992 0.117786
333 2 0.885366 0.505508 0.204009
319 2 0.845551 0.729123 0.253887
249 1 0.958257 0.552933 0.328405
217 1 0.918679 0.703585 0.357979
232 1 0.759497 0.707153 0.392443
274 1 0.759539 0.558298 0.405346
329 2 0.670872 0.639458 0.458562
14 1 0.957697 0.579447 0.478123
318 2 0.852625 0.656251 0.467721
253 1 0.805669 0.60573 0.265859
121 1 0.708928 0.744732 0.262299
247 1 0.861996 0.726421 0.683971
77 1 0.812609 0.591873 0.557703
259 1 0.939518 0.726399 0.548521
310 2 0.852592 0.530007 0.667275
264 1 0.742798 0.600762 0.690634
238 1 0.72635 0.715482 0.555324
82 1 0.961927 0.595451 0.628249
105 1 0.69214 0.743125 0.699124
345 2 0.723823 0.519982 0.97494
224 1 0.772614 0.730148 0.826635
31 1 0.722616 0.5825 0.835192
18 1 0.990569 0.613753 0.892969
278 1 0.834825 0.591985 0.9467
61 1 0.872661 0.599346 0.79089
44 1 0.711676 0.672695 0.977449
101 1 0.978512 0.500017 0.761715
355 2 0.72412 0.938108 0.112598
29 1 0.858323 0.878987 0.0418141
4 1 0.917727 0.949605 0.183482
252 1 0.924078 0.787865 0.170233
154 1 0.777009 0.846247 0.185488
320 2 0.753145 0.79108 0.0236394
211 1 0.770009 0.993117 0.235352
219 1 0.964014 1.00304 0.0264752
118 1 0.906387 0.849854 0.30242
96 1 0.753745 0.872085 0.343955
263 1 0.966371 0.826227 0.451645
20 1 0.794353 0.832206 0.491961
147 1 0.892429 0.988066 0.339456
69 1 0.842541 0.983461 0.497381
92 1 0.909594 0.870706 0.59561
221 1 0.747319 0.935355 0.618388
68 1 0.986247 0.923284 0.73993
354 2 0.980963 0.794735 0.665085
304 2 0.705959 0.918382 0.501835
293 2 0.741487 0.955546 0.832655
244 1 0.765489 0.863802 0.909197
84 1 0.904068 0.939853 0.892905
240 1 0.918744 0.79282 0.824671
307 2 0.952782 0.837994 0.961279
141 1 0.828064 0.883454 0.747461
159 1 0.867376 0.738262 0.959215
ITEM: TIMESTEP
140000
ITEM: NUMBER OF ATOMS
360
ITEM: BOX BOUNDS pp pp pp
0.0000000000000000e+00 6.6943295008216896e+00
0.0000000000000000e+00 6.6943295008216896e+00
0.0000000000000000e+00 6.6943295008216896e+00
ITEM: ATOMS id type xs ys zs
311 2 0.187644 0.213869 0.237275
262 1 0.112696 0.146206 0.142174
70 1 0.163686 0.0163256 0.108677
183 1 0.243841 0.223115 0.124031
144 1 0.0849075 0.0160952 0.236737
320 2 0.033326 0.0392298 0.0992291
129 1 0.303291 0.085637 0.128633
46 1 0.064825 0.122439 -0.00291428
187 1 0.081521 0.170787 0.292721
13 1 0.0667374 0.1952 0.464059
332 2 0.0082943 0.102564 0.396186
284 1 0.126164 0.0479051 0.386993
327 2 0.185663 0.152122 0.368553
11 1 0.288177 0.21536 0.301219
99 1 0.322283 0.0865956 0.395081
104 1 0.212659 0.125935 0.48825
143 1 0.223462 0.0760069 0.279412
62 1 0.239488 0.241144 0.722985
229 1 0.159491 0.0999146 0.667906
54 1 0.307994 0.215747 0.590534
299 2 0.0732912 0.156641 0.587357
116 1 0.0700911 0.222122 0.699782
72 1 0.0320221 0.0203297 0.518567
279 1 0.00164653 0.0711528 0.669057
235 1 0.297068 0.00420058 0.513283
33 1 0.167783 0.250924 0.570328
53 1 0.176823 0.127535 0.827579
57 1 0.310055 0.11297 0.764982
210 1 0.259523 0.244416 0.882686
358 2 0.30856 0.0981609 0.889882
246 1 0.0342599 0.128145 0.83137
136 1 0.224752 0.137761 0.996977
113 1 0.0950239 0.28684 0.193397
134 1 0.264698 0.337663 0.0305078
199 1 0.171843 0.42074 0.126519
339 2 0.226324 0.330839 0.196739
63 1 0.321161 0.42468 0.156492
154 1 0.102695 0.285371 0.0294235
55 1 0.0180839 0.395162 0.0914114
171 1 0.159446 0.295674 0.322673
2 1 0.245414 0.30933 0.451832
80 1 0.143123 0.452927 0.394904
292 2 0.10619 0.336789 0.435663
78 1 0.29113 0.377028 0.303334
22 1 0.270152 0.462901 0.476293
286 1 0.00116798 0.331127 0.342347
173 1 -0.000662699 0.421037 0.474756
23 1 0.0694837 0.427991 0.250727
109 1 0.146278 0.41346 0.542993
12 1 0.274279 0.358532 0.613802
56 1 0.0180427 0.308118 0.571258
122 1 0.111568 0.379638 0.691029
157 1 0.0308271 0.493492 0.614713
215 1 0.268476 0.432595 0.734741
197 1 0.147678 0.468538 0.980777
317 2 0.174348 0.332375 0.938518
50 1 0.126018 0.416573 0.836677
209 1 0.26853 0.41394 0.898648
313 2 0.220663 0.341924 0.794331
168 1 0.0232644 0.369093 0.934148
352 2 0.0269825 0.49342 0.97313
172 1 0.109467 0.267191 0.851787
25 1 0.291645 0.514728 0.0279786
185 1 0.242175 0.732906 0.0342162
182 1 0.188613 0.593851 0.114938
76 1 0.0725772 0.583731 0.227601
225 1 0.0855737 0.741485 0.0923239
30 1 0.0455461 0.542911 0.0784613
328 2 0.305663 0.713167 0.169084
189 1 0.187492 0.750616 0.221068
130 1 0.143386 0.618805 0.362583
348 2 0.255437 0.548451 0.374544
81 1 0.29886 0.644186 0.311467
217 1 0.0148243 0.662292 0.456353
135 1 0.2587 0.674915 0.454405
89 1 0.0117374 0.540819 0.358846
125 1 0.0180858 0.717302 0.314169
272 1 0.22038 0.512645 0.261838
297 2 0.0187564 0.541336 0.489823
137 1 0.0477881 0.636751 0.628793
117 1 0.225981 0.679691 0.608845
176 1 0.177522 0.526317 0.647281
323 2 0.2622 0.597244 0.7089
306 2 0.258762 0.563439 0.551877
310 2 0.0851165 0.496912 0.744054
32 1 0.138375 0.586069 0.51159
61 1 0.24435 0.563516 0.854979
247 1 0.0689067 0.549481 0.866647
192 1 0.213115 0.720455 0.862363
290 2 0.270159 0.627517 0.96171
82 1 0.0290502 0.695132 0.843511
180 1 0.324616 0.702268 0.766138
268 1 0.148791 0.630073 0.76364
207 1 0.131281 0.645927 0.975793
68 1 0.181256 0.874716 0.0498198
309 2 0.121823 0.853513 0.155699
346 2 0.267772 0.947253 0.122161
115 1 0.211187 0.904144 0.224785
219 1 0.0360808 0.917609 0.0647726
287 1 0.320226 0.83506 0.129711
252 1 0.0191952 0.863243 0.254444
179 1 0.266002 0.945792 0.371598
344 2 0.115913 0.929258 0.325584
204 1 0.141256 0.806636 0.356177
220 1 0.265821 0.826844 0.464281
20 1 0.164253 0.932961 0.488754
263 1 0.00957229 0.822192 0.443433
17 1 -0.000694094 0.958526 0.371713
331 2 0.335011 0.788904 0.66245
92 1 0.0952899 0.958717 0.639642
151 1 0.220908 0.84587 0.61256
95 1 0.253726 0.979925 0.681234
214 1 0.108202 0.776495 0.73467
194 1 0.126385 0.758587 0.518354
354 2 0.0494314 0.899805 0.542996
265 1 0.119873 0.989298 0.942806
181 1 0.256888 0.845511 0.775041
3 1 0.243738 0.989708 0.842789
21 1 0.11689 0.915948 0.799321
255 1 0.259573 0.844659 0.925983
293 2 0.0362195 0.823294 0.828556
18 1 0.0897064 0.805155 0.935945
162 1 0.275105 0.981107 1.00104
205 1 0.498053 0.0359019 0.211637
126 1 0.618077 0.193267 0.132591
256 1 0.361803 0.228696 0.0138382
38 1 0.592574 0.049103 0.0661638
242 1 0.467927 0.15309 0.116426
350 2 0.581985 0.228731 0.00591927
326 2 0.483275 0.236989 0.205374
153 1 0.625668 0.161486 0.5005
261 1 0.555438 0.164927 0.289853
277 1 0.407422 0.150726 0.256497
58 1 0.494886 0.144143 0.420946
10 1 0.604513 0.0335442 0.346936
119 1 0.381295 0.243654 0.457397
356 2 0.665626 0.143285 0.385547
233 1 0.425532 0.214549 0.706128
294 2 0.575643 0.0937702 0.60447
212 1 0.595745 0.179247 0.699006
120 1 0.477407 0.172131 0.563137
24 1 0.369671 0.0714709 0.637936
166 1 0.457098 0.0165397 0.510477
300 2 0.370245 0.123926 0.521356
266 1 0.480873 0.0923641 0.776007
191 1 0.553577 0.126045 0.935661
131 1 0.635772 0.0697741 0.799583
230 1 0.404078 0.187457 0.875063
234 1 0.401789 0.0785034 0.992804
305 2 0.469448 0.0280913 0.901501
269 1 0.665908 0.217776 0.855027
222 1 0.512183 0.3163 0.0897151
158 1 0.594311 0.315779 0.230882
74 1 0.403912 0.39563 0.0230362
270 1 0.610818 0.458793 0.130796
177 1 0.376002 0.28119 0.176268
170 1 0.474625 0.402044 0.200496
148 1 0.580953 0.412069 0.476582
314 2 0.500114 0.436822 0.344235
146 1 0.457866 0.2907 0.330068
85 1 0.607891 0.281313 0.389438
227 1 0.624218 0.427893 0.324275
93 1 0.425071 0.401118 0.440926
324 2 0.506653 0.279879 0.465965
245 1 0.574232 0.42549 0.638911
6 1 0.42974 0.335483 0.592227
108 1 0.442592 0.410433 0.715104
226 1 0.59964 0.288291 0.571182
353 2 0.531058 0.312877 0.690404
239 1 0.662482 0.31484 0.731049
103 1 0.347174 0.496095 0.618962
138 1 0.419985 0.436241 0.871358
196 1 0.537897 0.472001 0.979385
19 1 0.57606 0.395803 0.826507