ITEM: TIMESTEP
0
ITEM: NUMBER OF ATOMS
360
ITEM: BOX BOUNDS pp pp pp
0.0000000000000000e+00 6.6943295008216896e+00
0.0000000000000000e+00 6.6943295008216896e+00
0.0000000000000000e+00 6.6943295008216896e+00
ITEM: ATOMS id type xs ys zs
6 1 0.259776 0.104359 0.16231
120 1 0.0381232 0.0786174 0.100396
67 1 0.142165 0.223666 0.207009
97 1 0.162675 0.16204 0.0518697
340 2 0.137465 0.0708993 0.174666
105 1 0.295534 0.228758 0.0256566
244 1 0.0303553 0.235029 0.110847
277 1 0.321405 0.24471 0.185763
300 2 0.260161 0.0811253 0.0033578
38 1 0.01213 0.147901 0.275559
319 2 0.153918 0.196899 0.366346
75 1 0.240992 0.112842 0.442762
37 1 0.0823521 0.0886911 0.398488
9 1 0.194467 0.0961221 0.298947
223 1 0.0289772 0.227845 0.449692
289 2 0.293907 0.229627 0.408757
143 1 0.0690371 0.00686268 0.255318
4 1 0.332224 0.00141471 0.371553
295 2 0.148531 0.034041 0.499959
328 2 0.250469 0.0859316 0.580987
83 1 0.291144 0.215178 0.576771
181 1 0.126095 0.157807 0.565178
226 1 0.23044 0.134548 0.704544
339 2 0.00699105 0.112977 0.516377
43 1 0.0189168 0.0704458 0.663172
228 1 0.0859445 0.186617 0.748207
36 1 0.118491 0.0498404 0.963051
144 1 0.152854 0.0354658 0.806894
116 1 0.0887435 0.201086 0.909398
216 1 0.226624 0.136017 0.892926
350 2 0.2781 0.0491867 0.807816
106 1 0.00627055 0.0783546 0.843816
263 1 0.32564 0.376553 0.085788
70 1 0.134676 0.3275 0.0299006
200 1 0.175197 0.378539 0.179433
334 2 0.118088 0.471848 0.118077
304 2 0.0636731 0.320493 0.204814
342 2 0.223888 0.274208 0.113014
279 1 0.00604052 0.414581 0.136412
145 1 0.305496 0.424193 0.236682
192 1 0.221678 0.494314 0.050788
69 1 0.24297 0.294624 0.314436
39 1 0.0733088 0.458034 0.268971
233 1 0.0803674 0.302857 0.326282
31 1 0.148165 0.411843 0.39398
183 1 0.30504 0.345457 0.451432
188 1 0.168981 0.277197 0.467236
344 2 0.199895 0.446974 0.293455
47 1 0.0259696 0.355283 0.531619
292 2 0.121556 0.439439 0.651175
241 1 0.00874506 0.489289 0.643556
99 1 0.152991 0.307027 0.630977
131 1 0.197341 0.437809 0.547737
101 1 0.0327075 0.35557 0.712907
269 1 0.311116 0.440034 0.649461
273 1 0.332022 0.28012 0.708473
160 1 0.211144 0.418587 0.782241
27 1 0.0925681 0.369416 0.87243
104 1 0.197813 0.267047 0.798337
249 1 0.262305 0.376793 0.945056
301 2 0.195284 0.256674 0.934399
193 1 0.078983 0.4631 0.998262
174 1 0.104832 0.611093 0.0486798
178 1 0.189179 0.536167 0.207041
60 1 0.0233735 0.563359 0.180186
8 1 0.232765 0.657568 0.10855
337 2 0.123729 0.635312 0.205615
113 1 0.110887 0.747061 0.146656
310 2 0.299207 0.589016 0.00472865
23 1 0.329103 0.53038 0.130552
278 1 0.030574 0.648138 0.463769
133 1 0.154933 0.567981 0.347671
14 1 0.278941 0.668958 0.411277
107 1 0.287353 0.511925 0.441273
135 1 0.318834 0.578264 0.282419
66 1 0.0345725 0.693343 0.280467
98 1 0.213963 0.706333 0.277747
180 1 0.137286 0.747752 0.40773
176 1 0.0820314 0.50795 0.480988
102 1 0.254398 0.686219 0.64534
299 2 0.302097 0.555864 0.602769
25 1 0.0830258 0.727428 0.600378
294 2 0.0496185 0.594129 0.580669
136 1 0.147962 0.564527 0.670744
121 1 0.00758955 0.630833 0.729269
207 1 0.181051 0.610767 0.521951
266 1 0.288052 0.557162 0.74294
256 1 0.175619 0.556264 0.902579
94 1 0.0746951 0.672324 0.877771
309 2 0.132461 0.608319 0.787682
355 2 0.314057 0.525681 0.869172
343 2 0.0377789 0.579036 0.943535
238 1 0.206415 0.712679 0.789277
262 1 0.203147 0.718848 0.963518
194 1 0.323981 0.658147 0.873499
297 2 0.081114 0.749729 0.986056
265 1 0.0673562 0.501955 0.795069
109 1 0.0908672 0.915929 0.145794
288 1 0.241469 0.819437 0.0925272
230 1 0.225139 0.958985 0.242386
341 2 0.306219 0.931658 0.132708
161 1 0.0020272 0.820616 0.0609463
246 1 0.198107 0.989776 0.0773156
19 1 0.260954 0.833874 0.363425
32 1 0.0192087 0.86855 0.376277
2 1 0.131965 0.841272 0.27035
202 1 0.157606 0.947133 0.395451
324 2 0.00216147 0.992101 0.385515
195 1 0.260437 0.952912 0.509094
212 1 0.268007 0.786042 0.528811
167 1 0.201143 0.836992 0.660987
61 1 0.0573327 0.902332 0.64207
130 1 0.139598 0.862321 0.52109
221 1 0.0236577 0.985656 0.511885
290 2 0.305282 0.90606 0.629829
346 2 0.133052 0.921486 0.74424
132 1 0.177848 0.994143 0.638396
89 1 0.181917 0.841366 0.855758
314 2 0.269684 0.860103 0.96657
57 1 0.0221568 0.815852 0.894969
322 2 0.0940517 0.942116 0.900876
24 1 0.0160671 0.923741 0.791641
198 1 0.269607 0.935734 0.757443
54 1 0.265569 0.975042 0.921117
204 1 0.139166 0.878887 0.995112
227 1 0.0639424 0.772635 0.752982
76 1 0.524258 0.0438755 0.144506
30 1 0.474296 0.203915 0.214687
209 1 0.461787 0.163359 0.0564809
210 1 0.353195 0.0270847 0.056542
308 2 0.390706 0.107524 0.143927
72 1 0.650605 0.171052 0.128403
317 2 0.584942 0.124292 0.00645429
242 1 0.639218 0.00383262 0.229504
318 2 0.584639 0.131618 0.230914
112 1 0.365723 0.143312 0.312997
311 2 0.436637 0.083636 0.40993
15 1 0.534408 0.193391 0.36836
26 1 0.400028 0.204285 0.467138
95 1 0.506636 0.0472417 0.295618
182 1 0.621017 0.0578574 0.395199
150 1 0.580526 0.128559 0.672823
96 1 0.340904 0.0272675 0.666347
114 1 0.429639 0.149321 0.633218
156 1 0.37354 0.0600815 0.523119
306 2 0.468423 0.0639052 0.732614
291 2 0.630671 0.0484433 0.565337
217 1 0.519783 0.103261 0.510847
197 1 0.665163 0.163269 0.522119
84 1 0.499751 0.0109586 0.99165
187 1 0.506536 0.101802 0.852967
139 1 0.612516 0.22312 0.787134
274 1 0.381455 0.109725 0.928111
100 1 0.370983 0.135733 0.780483
173 1 0.532124 0.246315 0.937775
326 2 0.486677 0.186201 0.75726
358 2 0.394568 0.274539 0.0941062
123 1 0.591646 0.408713 0.180293
158 1 0.49079 0.454494 0.0704783
152 1 0.446093 0.364069 0.200898
201 1 0.537685 0.296548 0.0924853
92 1 0.619954 0.270485 0.233513
169 1 0.545738 0.350213 0.332468
357 2 0.442601 0.322584 0.450995
40 1 0.402011 0.285655 0.318546
159 1 0.422843 0.440864 0.36566
247 1 0.541966 0.432015 0.458654
151 1 0.582224 0.497555 0.308401
276 1 0.553537 0.283702 0.49585
323 2 0.507202 0.391807 0.56915
287 1 0.642576 0.402041 0.576891
243 1 0.459246 0.42792 0.681584
240 1 0.53183 0.271991 0.651774
211 1 0.394441 0.321109 0.58058
148 1 0.615521 0.380409 0.7271
196 1 0.410002 0.463887 0.525707
347 2 0.606281 0.338128 0.859812
253 1 0.375865 0.420334 0.811056
13 1 0.500618 0.448055 0.884247
205 1 0.48542 0.30397 0.794883
236 1 0.426669 0.332136 0.973098
264 1 0.33338 0.254195 0.876859
141 1 0.616812 0.388191 0.980149
3 1 0.375663 0.490946 0.983219
282 1 0.600689 0.564628 0.143865
44 1 0.634351 0.721515 0.160267
185 1 0.453465 0.606341 0.0763095
285 1 0.460966 0.52522 0.219077
336 2 0.506437 0.646698 0.213524
82 1 0.392109 0.686412 0.194936
356 2 0.592739 0.664075 0.0474851
90 1 0.346546 0.722944 0.0258339
359 2 0.401701 0.553296 0.391068
42 1 0.441676 0.659134 0.330011
231 1 0.521645 0.575895 0.436028
165 1 0.600247 0.650572 0.300273
329 2 0.341101 0.73293 0.314168
252 1 0.546265 0.732487 0.414244
229 1 0.618866 0.686281 0.686532
214 1 0.538168 0.526195 0.584273
48 1 0.430052 0.580741 0.667615
257 1 0.507635 0.682317 0.552014
259 1 0.642975 0.639053 0.536958
219 1 0.371601 0.63049 0.526693
213 1 0.577513 0.526424 0.734295
307 2 0.364798 0.667092 0.749223
348 2 0.662514 0.512772 0.5176
127 1 0.452369 0.57992 0.816226
45 1 0.59207 0.643391 0.835114
245 1 0.563508 0.555987 0.972922
78 1 0.466961 0.702218 0.93507
125 1 0.477346 0.74801 0.762688
162 1 0.456968 0.899103 0.125747
261 1 0.603821 0.877842 0.123778
286 1 0.500236 0.756407 0.0752375
331 2 0.526174 0.88631 0.0139898
305 2 0.52915 0.921108 0.233962
10 1 0.517699 0.787989 0.242165
206 1 0.379883 0.987764 0.229336
248 1 0.341242 0.83049 0.208439
62 1 0.427512 0.868124 0.332068
327 2 0.641314 0.769177 0.324575
146 1 0.399193 0.770745 0.452325
239 1 0.570042 0.889603 0.344077
163 1 0.47353 0.973344 0.439712
338 2 0.341879 0.884854 0.445825
170 1 0.414819 0.889892 0.549913
5 1 0.661601 0.784293 0.553617
283 1 0.4161 0.883239 0.727974
122 1 0.535262 0.836282 0.633608
154 1 0.602271 0.921466 0.515689
171 1 0.390228 0.751622 0.639278
58 1 0.658368 0.958252 0.658282
352 2 0.516723 0.81412 0.504296
138 1 0.50443 0.995393 0.63062
303 2 0.661547 0.820408 0.68759
118 1 0.48848 0.850345 0.882827
137 1 0.620007 0.949796 0.929735
147 1 0.404456 0.983355 0.84651
270 1 0.607014 0.813082 0.80182
103 1 0.59975 0.785529 0.960978
53 1 0.541705 0.970407 0.782506
172 1 0.3893 0.880147 0.990212
46 1 0.335329 0.820704 0.847144
21 1 0.807533 0.0226341 0.188295
164 1 0.905552 0.166682 0.144434
313 2 0.772905 0.145189 0.170721
52 1 0.850221 0.0460968 0.0332821
29 1 0.786944 0.184592 0.0435855
320 2 0.940332 0.0625985 0.206779
111 1 0.670732 0.0328599 0.0671697
312 2 0.928695 0.202713 0.37167
88 1 0.770647 0.157021 0.411048
71 1 0.914411 0.0876932 0.419803
190 1 0.84813 0.151788 0.279499
222 1 0.694476 0.133216 0.278305
232 1 0.762342 0.00587446 0.352096
218 1 0.739278 0.0189365 0.507748
34 1 0.875939 0.0930422 0.574559
321 2 0.783508 0.182366 0.545045
184 1 0.735869 0.114393 0.647524
177 1 0.891268 0.244031 0.506396
64 1 0.985303 0.229274 0.624383
293 2 0.796967 0.00909867 0.625305
149 1 0.863809 0.0660231 0.735316
1 1 0.833526 0.249005 0.661624
237 1 0.856917 0.109226 0.899036
129 1 0.774048 0.187338 0.78653
51 1 0.667781 0.0646992 0.790043
235 1 0.937779 0.202998 0.781838
142 1 0.983773 0.150862 0.994141
108 1 0.712177 0.102708 0.934568
268 1 0.684338 0.24923 0.941299
349 2 0.907622 0.415875 0.0383233
316 2 0.715679 0.456688 0.166849
117 1 0.705979 0.341909 0.0974255
63 1 0.8218 0.47404 0.110878
80 1 0.8583 0.310469 0.0921615
251 1 0.771009 0.269346 0.214609
220 1 0.939251 0.28365 0.233191
191 1 0.881871 0.426827 0.24987
271 1 0.844818 0.303858 0.360568
175 1 0.83626 0.485596 0.378447
335 2 0.857036 0.38753 0.458799
59 1 0.690472 0.412801 0.417301
49 1 0.979396 0.404272 0.391427
284 1 0.671686 0.268743 0.389671
168 1 0.723188 0.394626 0.277594
110 1 0.782578 0.470039 0.527773
50 1 0.770222 0.407385 0.68996
128 1 0.893783 0.377457 0.597852
79 1 0.750168 0.305798 0.51541
7 1 0.680513 0.261465 0.652785
87 1 0.934191 0.495455 0.50849
155 1 0.736745 0.345665 0.828095
332 2 0.969673 0.307652 0.865574
199 1 0.893827 0.353927 0.778125
85 1 0.956232 0.444059 0.910424
119 1 0.85799 0.267018 0.910731
345 2 0.942586 0.485587 0.767959
41 1 0.980199 0.314467 0.993326
225 1 0.795219 0.408031 0.967961
189 1 0.674509 0.482554 0.885375
179 1 0.816765 0.481597 0.808882
298 2 0.695559 0.481225 0.752722
224 1 0.873701 0.586577 0.233918
186 1 0.687274 0.510242 0.0394749
208 1 0.955588 0.689491 0.145779
166 1 0.77934 0.624853 0.12051
296 2 0.835933 0.674746 0.0070087
11 1 0.932194 0.548487 0.0447569
302 2 0.902276 0.716441 0.249751
33 1 0.900676 0.677329 0.389125
73 1 0.715232 0.716415 0.413434
65 1 0.681061 0.574537 0.402142
330 2 0.796469 0.608946 0.358197
74 1 0.97806 0.556733 0.342712
91 1 0.754399 0.700839 0.262139
86 1 0.79893 0.613668 0.493914
81 1 0.724132 0.547161 0.262307
22 1 0.775701 0.690906 0.63063
93 1 0.919017 0.650338 0.591129
203 1 0.69362 0.537744 0.637105
157 1 0.866744 0.521624 0.644886
280 1 0.86759 0.671146 0.74753
126 1 0.819355 0.706599 0.882708
267 1 0.726842 0.614066 0.783569
275 1 0.959922 0.690115 0.981007
55 1 0.950169 0.588082 0.855328
351 2 0.969101 0.71618 0.821876
254 1 0.823283 0.559393 0.946352
353 2 0.679872 0.73808 0.866068
35 1 0.688552 0.649359 0.955289
134 1 0.960304 0.822638 0.232631
20 1 0.855883 0.788266 0.136166
325 2 0.672211 0.876277 0.014819
281 1 0.927692 0.948056 0.137379
17 1 0.771306 0.910269 0.0945894
360 2 0.715035 0.810201 0.148534
333 2 0.820961 0.898228 0.224269
153 1 0.739463 0.764938 0.03041
140 1 0.901248 0.979804 0.298861
77 1 0.833385 0.815361 0.329647
68 1 0.717948 0.869323 0.425793
255 1 0.879882 0.919793 0.45283
12 1 0.704718 0.861791 0.254874
115 1 0.839042 0.772113 0.493181
260 1 0.918138 0.807125 0.661471
56 1 0.790785 0.929596 0.743699
234 1 0.766477 0.883265 0.585719
16 1 0.907489 0.948814 0.633786
272 1 0.756532 0.776034 0.749661
258 1 0.988534 0.816112 0.520364
28 1 0.896216 0.819934 0.815264
354 2 0.758891 0.982162 0.865314
124 1 0.886933 0.964818 0.872759
250 1 0.736382 0.860419 0.896445
18 1 0.865149 0.858187 0.983976
315 2 0.672267 0.9327 0.788759
215 1 0.983071 0.962899 0.997239
ITEM: TIMESTEP
1000000
ITEM: NUMBER OF ATOMS
360
ITEM: BOX BOUNDS pp pp pp
0.0000000000000000e+00 6.6943295008216896e+00
0.0000000000000000e+00 6.6943295008216896e+00
0.0000000000000000e+00 6.6943295008216896e+00
ITEM: ATOMS id type xs ys zs
120 1 0.0333311 0.149541 0.186212
109 1 0.163861 0.0464086 0.141062
29 1 0.166049 0.238231 0.072484
246 1 0.0410065 0.0599956 0.0628171
289 2 0.241839 0.142164 0.135384
69 1 0.174385 0.204936 0.232706
6 1 0.325295 0.0527972 0.130902
215 1 0.0209351 0.221358 0.0243403
277 1 0.323933 0.175741 0.245399
274 1 0.270696 0.142575 0.0124001
97 1 0.337149 0.237611 0.103878
232 1 0.13101 0.0323093 0.282083
206 1 0.219244 0.143146 0.361287
188 1 0.0678785 0.180242 0.3734
112 1 0.293915 0.0504838 0.454184
329 2 0.056002 0.100462 0.470332
9 1 0.290069 0.0286718 0.278031
181 1 0.13581 0.00433525 0.442663
96 1 0.148107 0.0206367 0.589721
104 1 0.340155 0.218933 0.707872
75 1 0.222394 0.0644479 0.714692
306 2 0.151295 0.153668 0.657895
114 1 0.17636 0.145622 0.511096
43 1 0.0213159 0.123934 0.598876
83 1 0.3144 0.128987 0.58976
235 1 0.00813155 0.220235 0.848626
34 1 0.25598 0.0961977 0.864624
36 1 0.0667595 0.0889373 0.913844
27 1 0.154389 0.210061 0.926684
54 1 0.187651 0.00277003 0.986864
106 1 0.1761 0.2149 0.771471
137 1 0.309538 0.241155 0.867805
71 1 0.0717636 0.0962013 0.757975
358 2 0.274444 0.289055 0.19768
279 1 0.250292 0.378732 0.0802642
312 2 0.0577574 0.418062 0.187665
41 1 0.0903034 0.365451 0.0675345
263 1 0.170133 0.360069 0.214484
211 1 0.30493 0.442808 0.206612
340 2 0.0712061 0.260644 0.147923
220 1 0.0160823 0.305114 0.245027
38 1 0.140714 0.313053 0.380724
304 2 0.218404 0.260154 0.470886
240 1 0.220859 0.440975 0.351828
60 1 0.0623628 0.43675 0.327181
169 1 0.298704 0.300688 0.325352
183 1 0.318519 0.381279 0.4535
49 1 0.0868897 0.420241 0.485007
160 1 0.0308484 0.406285 0.63599
226 1 0.312094 0.486885 0.69483
101 1 0.219732 0.426731 0.580713
332 2 0.150351 0.343101 0.6725
70 1 0.15391 0.474038 0.725588
99 1 0.242751 0.267806 0.604709
131 1 0.0699103 0.256438 0.509648
47 1 0.0552388 0.256549 0.674927
193 1 0.19359 0.354587 0.924938
265 1 0.0933482 0.351703 0.799693
256 1 0.0417344 0.427739 0.924634
238 1 0.26693 0.489697 0.835045
355 2 0.065507 0.305391 0.935047
116 1 0.253653 0.348759 0.75089
342 2 0.278173 0.270119 0.991039
344 2 0.297199 0.502467 0.960555
8 1 0.121411 0.669006 0.14294
23 1 0.263252 0.641555 0.0717171
85 1 0.0275692 0.517207 0.0727768
178 1 0.295506 0.615686 0.216151
63 1 0.0165612 0.536143 0.215664
32 1 0.00125933 0.751852 0.0577422
145 1 0.173375 0.508681 0.140184
180 1 0.252176 0.560501 0.461639
42 1 0.148809 0.687056 0.422297
319 2 0.292565 0.552911 0.332319
133 1 0.149097 0.570533 0.291917
176 1 0.0837121 0.573083 0.471882
31 1 0.316697 0.671504 0.373018
202 1 0.18715 0.734657 0.271566
357 2 0.0355236 0.568476 0.353294
208 1 0.0193653 0.677381 0.276307
223 1 0.0531977 0.591264 0.699946
269 1 0.183776 0.595941 0.603121
207 1 0.0512652 0.688607 0.571327
292 2 0.249804 0.707275 0.648802
121 1 0.127552 0.723465 0.705004
107 1 0.32088 0.67025 0.550696
298 2 0.0949202 0.504687 0.599725
266 1 0.241955 0.614676 0.759934
3 1 0.2465 0.619193 0.932451
343 2 0.00773008 0.561843 0.919212
155 1 0.113193 0.577041 0.84549
297 2 0.0437723 0.677525 0.80172
262 1 0.145114 0.728215 0.861052
200 1 0.171841 0.497309 0.988148
341 2 0.286398 0.747835 0.878592
192 1 0.0907737 0.649443 0.987701
62 1 0.296423 0.776063 0.164817
275 1 0.106093 0.895964 0.0795683
248 1 0.264209 0.904165 0.0666215
302 2 0.171737 0.78722 0.148197
324 2 0.311147 0.923191 0.190943
77 1 0.0396902 0.817767 0.192486
113 1 0.189921 0.902715 0.233815
143 1 0.00816935 0.967631 0.187146
174 1 0.183756 0.758613 0.0204148
13 1 0.344813 0.758979 -0.0043721
350 2 0.248141 0.955981 0.374657
195 1 0.184205 0.845562 0.396599
140 1 0.0455994 0.901399 0.327363
337 2 0.0712718 0.77753 0.340066
10 1 0.302939 0.829654 0.306237
130 1 0.0444086 0.802008 0.46831
102 1 0.194322 0.769825 0.548964
156 1 0.254351 0.925301 0.528292
132 1 0.0184394 0.841101 0.620605
198 1 0.173275 0.870107 0.667373
323 2 0.12356 0.988203 0.711821
294 2 0.12803 0.89323 0.518208
221 1 0.00267539 0.957627 0.515771
228 1 0.338321 0.978449 0.66384
288 1 0.221998 0.863854 0.917035
48 1 0.281484 0.76945 0.75896
125 1 0.278505 0.935139 0.797342
57 1 0.0725553 0.855409 0.937588
290 2 0.172611 0.857192 0.793973
179 1 0.041927 0.842327 0.776079
204 1 0.123731 0.966503 0.834401
300 2 0.0495745 0.979053 0.971298
187 1 0.33051 0.984566 0.940035
209 1 0.460671 0.153384 0.13533
251 1 0.546687 0.0321157 0.0807514
7 1 0.594451 0.17396 0.010912
268 1 0.632851 0.159082 0.174834
326 2 0.40334 0.0811711 0.225456
242 1 0.52901 0.0432712 0.229461
308 2 0.663743 0.0934036 0.0685953
162 1 0.418795 0.100545 0.353859
197 1 0.519899 0.202369 0.270169
30 1 0.564994 0.081566 0.390415
338 2 0.41157 0.227619 0.339563
201 1 0.489758 0.221098 0.440157
276 1 0.341135 0.204478 0.454675
316 2 0.640412 0.097712 0.27836
40 1 0.44786 0.237175 0.596164
51 1 0.435536 0.0959248 0.67053
255 1 0.564385 0.139656 0.573963
138 1 0.441675 0.0777117 0.503005
53 1 0.588623 0.0144773 0.669238
149 1 0.53803 0.0873245 0.903766
52 1 0.42098 0.146499 0.83512
108 1 0.426021 0.241025 0.977285
72 1 0.418102 0.0880757 0.999407
105 1 0.547063 0.249248 0.882516
291 2 0.64755 0.166463 0.865106
301 2 0.339081 0.0536781 0.767406
217 1 0.556291 0.134693 0.753083
282 1 0.624019 0.443599 0.181887
141 1 0.417005 0.370973 0.0807445
81 1 0.653095 0.35631 0.0470875
95 1 0.4156 0.31326 0.22521
158 1 0.543931 0.281072 0.119776
152 1 0.447274 0.480678 0.19895
189 1 0.530577 0.506141 0.0552652
310 2 0.54212 0.340144 0.240162
318 2 0.353299 0.431449 0.332867
247 1 0.459671 0.36169 0.362058
50 1 0.607922 0.348832 0.349325
165 1 0.542513 0.487768 0.328612
359 2 0.415711 0.307379 0.470204
284 1 0.640425 0.262333 0.486876
243 1 0.643129 0.455663 0.590969
15 1 0.364981 0.365036 0.599078
231 1 0.599162 0.310147 0.637436
287 1 0.480837 0.451492 0.661027
119 1 0.470575 0.287437 0.743286
159 1 0.520118 0.389295 0.506417
264 1 0.403766 0.416352 0.800104
100 1 0.504516 0.378542 0.951757
295 2 0.422025 0.313234 0.873491
273 1 0.558093 0.398937 0.784994
213 1 0.663882 0.279432 0.773251
249 1 0.33948 0.37904 0.945834
148 1 0.659037 0.400943 0.894758
123 1 0.34511 0.511541 0.0714472
261 1 0.508884 0.736501 0.232668
245 1 0.62415 0.605302 0.0958399
353 2 0.541834 0.711872 0.111005
98 1 0.41211 0.690943 0.131461
239 1 0.582484 0.677708 0.389253
285 1 0.450538 0.603488 0.290629
196 1 0.555165 0.535614 0.480307
219 1 0.452729 0.67707 0.468859
334 2 0.378763 0.723616 0.255257
91 1 0.617008 0.607645 0.251632
252 1 0.403208 0.526355 0.413052
214 1 0.375203 0.51882 0.557931
234 1 0.655097 0.68556 0.646173
267 1 0.504183 0.600169 0.619198
171 1 0.373281 0.641843 0.689522
307 2 0.538484 0.680014 0.722394
352 2 0.57548 0.69191 0.530419
22 1 0.634226 0.574437 0.727738
28 1 0.584743 0.537177 0.899621
84 1 0.544804 0.67141 0.854368
194 1 0.388786 0.657665 0.860764
127 1 0.431307 0.513743 0.917507
253 1 0.487415 0.563474 0.762209
299 2 0.358248 0.56182 0.7891
185 1 0.490941 0.651667 0.997884
347 2 0.364167 0.636791 0.990185
325 2 0.449691 0.7574 0.926702
172 1 0.42391 0.948901 0.0999362
90 1 0.474168 0.801876 0.0411273
210 1 0.560096 0.872543 0.179608
327 2 0.419854 0.827036 0.151684
346 2 0.572688 0.90632 0.0524376
230 1 0.422982 0.923221 0.256077
286 1 0.626093 0.790911 0.0518941
305 2 0.640906 0.961656 0.235652
336 2 0.384725 0.881605 -0.0006165
4 1 0.397997 0.946861 0.404224
135 1 0.441099 0.794851 0.357736
73 1 0.630003 0.807734 0.309435
154 1 0.551914 0.930833 0.346137
146 1 0.52864 0.827132 0.479938
333 2 0.639451 0.886958 0.423251
2 1 0.33203 0.798873 0.456221
170 1 0.613228 0.866709 0.605087
147 1 0.484048 0.906147 0.691017
19 1 0.437728 0.920424 0.545929
283 1 0.48058 0.753546 0.605476
328 2 0.380209 0.864755 0.743774
212 1 0.339442 0.821555 0.622584
163 1 0.574031 0.990142 0.520858
118 1 0.486906 0.938351 0.941869
216 1 0.436032 0.983413 0.811343
356 2 0.49224 0.856882 0.826484
46 1 0.381596 0.846784 0.875333
111 1 0.566032 0.808244 0.921726
56 1 0.594018 0.92996 0.806979
229 1 0.442613 0.760338 0.757037
78 1 0.60145 0.792662 0.744916
76 1 0.657157 0.957837 0.946721
244 1 0.906535 0.0601087 0.229633
117 1 0.78299 0.112199 0.0965814
12 1 0.744047 0.0317026 0.225865
321 2 0.936657 0.110556 0.0987481
190 1 0.791229 0.178844 0.23354
142 1 0.905593 0.229931 0.139096
161 1 0.893963 0.0416287 -0.000748416
271 1 0.823839 0.103273 0.367741
88 1 0.674136 0.198596 0.348451
129 1 0.794872 0.220011 0.474301
227 1 0.707778 0.0882506 0.476116
222 1 0.938504 0.152952 0.466334
67 1 0.932114 0.195695 0.307408
177 1 0.979761 0.038306 0.363671
64 1 0.858655 0.00755787 0.481085
1 1 0.84275 0.13242 0.595345
24 1 0.924941 0.172365 0.724446
184 1 0.737793 0.0306942 0.627618
320 2 0.917815 0.0390018 0.595913
139 1 0.699208 0.193779 0.643007
124 1 0.843762 0.040467 0.747074
173 1 0.772348 0.182339 0.802654
150 1 0.681773 0.0474539 0.816745
21 1 0.730659 0.109062 0.954642
80 1 0.896738 0.115028 0.869584
205 1 0.85254 0.204594 0.994572
293 2 0.88354 0.241977 0.833028
82 1 0.776243 0.404266 0.146114
254 1 0.928277 0.388518 0.137166
349 2 0.848486 0.295283 0.226451
345 2 0.943885 0.422522 0.0236472
313 2 0.851499 0.32282 0.0690628
186 1 0.752457 0.253404 0.110756
92 1 0.685214 0.289838 0.232643
296 2 0.890374 0.490242 0.204809
331 2 0.715405 0.325132 0.414784
74 1 0.959365 0.479334 0.432113
348 2 0.832526 0.47379 0.3799
35 1 0.740713 0.432201 0.307186
191 1 0.906648 0.40368 0.300775
168 1 0.808364 0.289029 0.344316
110 1 0.692887 0.447761 0.450767
39 1 0.971181 0.321286 0.412027
233 1 0.839938 0.397451 0.472845
203 1 0.741212 0.421867 0.715211
87 1 0.872296 0.423368 0.633061
79 1 0.928263 0.271116 0.581441
26 1 0.741895 0.335276 0.5706
225 1 0.812763 0.289927 0.692659
335 2 0.952788 0.404986 0.52765
354 2 0.774956 0.458642 0.567422
128 1 0.944692 0.336294 0.747979
199 1 1.00201 0.472743 0.783095
136 1 0.806453 0.342548 0.836989
237 1 0.920754 0.328429 0.93548
236 1 0.702483 0.257826 0.934365
55 1 0.896258 0.486271 0.919202
157 1 0.791964 0.39703 0.982217
339 2 0.863533 0.43762 0.766163
11 1 0.855671 0.509367 0.070727
224 1 0.906687 0.628874 0.164228
103 1 0.792742 0.655404 0.0659884
126 1 0.76934 0.56424 0.211844
153 1 0.680668 0.727905 0.19109
45 1 0.708395 0.514226 0.00261236
66 1 0.971146 0.666073 0.420857
59 1 0.725238 0.573392 0.364216
360 2 0.701114 0.709645 0.341591
14 1 0.813476 0.681658 0.428724
278 1 0.902761 0.577205 0.319746
151 1 0.816397 0.706331 0.260814
175 1 0.822673 0.551627 0.486325
280 1 0.889372 0.556527 0.701491
25 1 0.892629 0.69092 0.576246
167 1 0.959452 0.72674 0.709521
259 1 0.753517 0.558948 0.63583
351 2 0.771718 0.692076 0.553975
93 1 0.971465 0.539195 0.57238
86 1 0.810377 0.688137 0.69789
257 1 0.684059 0.611698 0.512506
272 1 0.764878 0.524189 0.831247
270 1 0.706555 0.670049 0.807191
260 1 0.918746 0.617471 0.838217
303 2 0.81457 0.578857 0.961521
18 1 0.811923 0.710569 0.918636
241 1 0.994846 0.728981 0.903488
166 1 0.927204 0.62031 0.996851
44 1 0.675129 0.671164 0.961295
164 1 0.686896 0.967438 0.105432
68 1 0.751292 0.860501 0.215158
281 1 0.853812 0.959175 0.126858
20 1 0.876069 0.793524 0.146595
17 1 0.776139 0.839168 0.0318093
134 1 0.956818 0.904858 0.0319129
311 2 0.885532 0.761584 0.00981614
317 2 0.774969 0.975167 0.0227106
330 2 0.928414 0.890818 0.238512
218 1 0.84248 0.957647 0.311726
322 2 0.936507 0.914492 0.408284
33 1 0.771156 0.828075 0.378456
5 1 0.919482 0.798071 0.335716
182 1 0.694528 0.984682 0.359242
65 1 0.675459 0.766814 0.488101
115 1 0.871995 0.812836 0.50141
309 2 0.875136 0.801415 0.652454
58 1 0.737687 0.912672 0.742293
94 1 0.869369 0.924832 0.61083
16 1 0.749947 0.80651 0.620173
37 1 0.987751 0.981671 0.697885
258 1 0.883535 0.864067 0.758044
61 1 0.730351 0.922346 0.508548
89 1 0.887395 0.849635 0.911297
122 1 0.714497 0.826708 0.88077
250 1 0.81297 0.979132 0.883775
144 1 0.974564 0.97194 0.860714
314 2 0.872215 0.748616 0.806064
315 2 0.731136 0.790987 0.748511
ITEM: TIMESTEP
2000000
ITEM: NUMBER OF ATOMS
360
ITEM: BOX BOUNDS pp pp pp
0.0000000000000000e+00 6.6943295008216896e+00
0.0000000000000000e+00 6.6943295008216896e+00
0.0000000000000000e+00 6.6943295008216896e+00
ITEM: ATOMS id type xs ys zs
342 2 0.0472654 0.169539 0.109703
69 1 0.121803 0.0799583 0.0154814
109 1 0.0605438 0.113575 0.247601
120 1 0.184579 0.153767 0.134992
350 2 0.262496 0.127584 0.0245878
248 1 0.21305 0.0392287 0.235548
340 2 0.314099 0.130601 0.178997
232 1 0.0315482 0.00478899 0.113709
168 1 0.0666442 0.199407 0.41996
116 1 0.278644 0.09027 0.473528
181 1 0.127431 0.0443242 0.395458
328 2 0.208488 0.209579 0.430592
124 1 0.176172 0.192977 0.303433
169 1 0.310073 0.124405 0.322041
47 1 0.275625 0.229118 0.560858
19 1 0.243356 0.0694211 0.65356
221 1 0.128243 0.164675 0.69155
332 2 0.250602 0.217701 0.694861
99 1 0.140934 0.134696 0.537111
132 1 0.0652282 0.017374 0.614847
162 1 0.0292884 0.230871 0.583537
52 1 0.315753 0.0582273 0.933611
301 2 0.169472 0.0774272 0.871193
104 1 0.188744 0.185352 0.939018
106 1 0.0641804 0.140242 0.856619
147 1 0.269158 0.132305 0.794128
187 1 0.0791002 0.0167041 0.769657
289 2 0.0716897 0.371057 0.107771
211 1 0.257659 0.296689 0.0591979
123 1 0.107967 0.270338 0.0406457
178 1 0.183166 0.377105 0.176933
3 1 0.156211 0.459272 0.0397783
253 1 0.308806 0.461393 0.0876732
220 1 0.080411 0.265395 0.206808
38 1 0.282955 0.262387 0.212086
131 1 0.239511 0.490915 0.397302
49 1 0.0311004 0.324312 0.359926
285 1 0.329842 0.350705 0.45678
277 1 0.18703 0.350299 0.328036
357 2 0.126445 0.439161 0.404534
316 2 0.0066468 0.330186 0.50648
254 1 0.0891781 0.461039 0.278668
91 1 0.317142 0.411216 0.283696
343 2 0.227181 0.487485 0.265095
96 1 0.156033 0.324283 0.493449
160 1 0.105072 0.488374 0.561559
196 1 0.246331 0.412471 0.57583
235 1 0.153429 0.315508 0.648719
87 1 0.0106743 0.385669 0.627264
324 2 0.272251 0.480659 0.965682
314 2 0.0132372 0.453699 0.870425
279 1 0.174577 0.354194 0.920602
276 1 0.25258 0.392583 0.776866
43 1 0.171103 0.26129 0.795163
351 2 0.0643156 0.274451 0.899472
199 1 0.0930116 0.400975 0.778106
238 1 0.340176 0.387083 0.927378
240 1 0.0154987 0.396612 0.994533
271 1 0.0243712 0.270527 0.75033
85 1 0.0574715 0.610864 0.229159
312 2 0.105868 0.598585 0.0547381
113 1 0.288743 0.729671 0.186752
32 1 0.145377 0.699898 0.125822
23 1 0.197476 0.54749 0.163584
311 2 0.0234452 0.753336 0.205448
288 1 0.281183 0.740407 0.0361515
145 1 0.240512 0.595543 0.0151244
256 1 0.0223186 0.493003 0.121852
200 1 -0.00762245 0.667194 0.100874
101 1 0.157115 0.712416 0.436709
133 1 0.202975 0.621223 0.306088
176 1 0.0953817 0.56795 0.397587
42 1 0.0109298 0.680304 0.348986
70 1 0.310568 0.631297 0.416864
292 2 0.139003 0.601921 0.62862
79 1 0.0414284 0.64351 0.525323
62 1 0.282121 0.629377 0.663936
207 1 0.161625 0.723109 0.600327
272 1 0.0280582 0.651082 0.686584
198 1 0.207965 0.594857 0.526325
155 1 0.179333 0.515255 0.709932
302 2 0.30378 0.689334 0.547915
359 2 0.31154 0.496055 0.498619
298 2 0.0525651 0.494491 0.68161
226 1 0.306072 0.527555 0.820544
204 1 0.125433 0.680759 0.943708
102 1 0.158123 0.664644 0.755748
304 2 0.240785 0.626617 0.87873
303 2 0.0602051 0.690951 0.840718
193 1 0.162748 0.507319 0.887572
41 1 0.0265883 0.552046 0.960454
260 1 0.0383589 0.556553 0.79921
323 2 0.280722 0.702892 0.760478
338 2 0.214964 0.813997 0.113839
77 1 0.226417 0.871858 0.22981
54 1 0.0928945 0.852491 0.156175
341 2 0.0373974 0.777418 0.0638047
27 1 0.193897 0.960882 0.0916168
72 1 0.325625 0.887589 0.105968
262 1 0.146638 0.82318 0.0066905
244 1 0.0110912 0.900396 0.00754843
83 1 0.273755 0.957447 0.373964
180 1 0.141375 0.870006 0.418703
8 1 0.119655 0.767097 0.288402
246 1 0.0826077 0.951663 0.271384
188 1 0.00404162 0.950134 0.402999
218 1 0.0165845 0.794929 0.454773
329 2 0.0800534 0.968751 0.492645
174 1 0.280213 0.775422 0.340228
309 2 0.181392 0.95261 0.659226
130 1 0.121545 0.863243 0.584507
212 1 0.191345 0.817659 0.711646
4 1 0.314219 0.940703 0.662034
184 1 0.0364867 0.892976 0.71256
156 1 0.207745 0.97152 0.531795
31 1 0.274949 0.820316 0.503925
290 2 0.078285 0.768094 0.701884
37 1 0.12093 0.966492 0.919215
275 1 0.262971 0.912548 0.954825
336 2 0.186354 0.879285 0.835341
125 1 0.235527 0.987737 0.800543
34 1 0.0762554 0.814531 0.849611
121 1 0.230935 0.772316 0.880028
229 1 0.321167 0.831387 0.785735
251 1 0.497044 0.0677747 0.115419
92 1 0.374162 0.194695 0.0883718
118 1 0.52571 0.221429 0.0945227
299 2 0.60102 0.125177 0.0221846
195 1 0.432024 0.151037 0.218531
333 2 0.50971 0.0510574 0.259048
164 1 0.588724 0.144898 0.240157
46 1 0.332547 0.0393023 0.0878852
135 1 0.521743 0.143905 0.373822
182 1 0.612465 0.0187915 0.350227
138 1 0.421795 0.0316219 0.391864
139 1 0.400118 0.181058 0.487246
163 1 0.528899 0.0935184 0.555254
255 1 0.38952 0.0449753 0.563388
264 1 0.387543 0.153862 0.66244
322 2 0.609434 0.0496953 0.670885
228 1 0.474812 0.0279831 0.701136
51 1 0.553554 0.169777 0.720446
306 2 0.348969 0.0440687 0.742956
40 1 0.611724 0.21945 0.504434
108 1 0.432991 0.142523 0.813993
158 1 0.595064 0.196426 0.884881
111 1 0.540332 0.0454467 0.853577
97 1 0.342712 0.209212 0.926
76 1 0.466164 0.115416 0.971608
141 1 0.615586 0.373483 0.0450383
112 1 0.439029 0.305204 0.208361
95 1 0.429001 0.330518 0.0494813
335 2 0.51164 0.381598 0.130803
6 1 0.422355 0.466007 0.19967
268 1 0.617153 0.296374 0.190966
352 2 0.33275 0.377032 0.164235
81 1 0.601739 0.480979 0.17444
189 1 0.474797 0.477734 0.058387
142 1 0.560471 0.38729 0.292277
252 1 0.511703 0.337239 0.441407
202 1 0.407542 0.489509 0.406322
296 2 0.441408 0.380524 0.345559
261 1 0.578865 0.471135 0.441142
30 1 0.636941 0.270163 0.355045
183 1 0.398618 0.249422 0.346328
331 2 0.635026 0.358923 0.454035
305 2 0.523262 0.249129 0.298291
319 2 0.460656 0.405514 0.657555
231 1 0.588332 0.376165 0.580189
26 1 0.491655 0.25495 0.601455
152 1 0.556979 0.34269 0.76749
283 1 0.423584 0.42513 0.546772
318 2 0.450153 0.256654 0.729804