LAMMPS (15 Sep 2022)
OMP_NUM_THREADS environment is not set. Defaulting to 1 thread. (src/comm.cpp:98)
  using 1 OpenMP thread(s) per MPI task
Lattice spacing in x,y,z = 1.4938016 1.4938016 1.4938016
Created orthogonal box = (0 0 0) to (6.6943295 6.6943295 6.6943295)
  3 by 4 by 4 MPI processor grid
Created 365 atoms
  using lattice units in orthogonal box = (0 0 0) to (6.6943295 6.6943295 6.6943295)
  create_atoms CPU = 0.002 seconds
Setting atom values ...
  77 settings made for type
5 atoms in group extra
Deleted 5 atoms, new total = 360
288 atoms in group typea
72 atoms in group typeb
Minimizing initial structure
Generated 0 of 1 mixed pair_coeff terms from geometric mixing rule
Neighbor list info ...
  update: every = 1 steps, delay = 0 steps, check = yes
  max neighbors/atom: 2000, page size: 100000
  master list distance cutoff = 3
  ghost atom cutoff = 3
  binsize = 1.5, bins = 5 5 5
  1 neighbor lists, perpetual/occasional/extra = 1 0 0
  (1) pair lj/cut, perpetual
      attributes: half, newton on
      pair build: half/bin/atomonly/newton
      stencil: half/bin/3d
      bin: standard
Setting up Verlet run ...
  Unit style    : lj
  Current step  : 0
  Time step     : 0.001
Per MPI rank memory allocation (min/avg/max) = 3.961 | 3.966 | 3.968 Mbytes
   Step          Temp          E_pair         E_mol          TotEng         Press     
         0   0              32.410909      0              32.410909      205.0504     
      1000   17.076923      6.6773211      0              32.221552      101.29743    
      2000   17.271043      6.3885181      0              32.223121      99.851136    
      3000   17.50477       6.0412939      0              32.225512      98.246522    
      4000   17.154332      6.5628326      0              32.222855      100.78241    
      5000   17.218257      6.4678966      0              32.223539      100.04143    
      6000   17.426114      6.1565077      0              32.22307       98.464215    
      7000   17.469025      6.0911277      0              32.221878      98.532725    
      8000   17.919346      5.4208089      0              32.225164      94.787881    
      9000   17.394722      6.2031788      0              32.222784      99.243548    
     10000   17.337491      6.2872555      0              32.221253      99.454811    
Loop time of 0.493384 on 48 procs for 10000 steps with 360 atoms

Performance: 1751169.748 tau/day, 20268.168 timesteps/s, 7.297 Matom-step/s
99.3% CPU use with 48 MPI tasks x 1 OpenMP threads

MPI task timing breakdown:
Section |  min time  |  avg time  |  max time  |%varavg| %total
---------------------------------------------------------------
Pair    | 0.032716   | 0.035304   | 0.039771   |   0.8 |  7.16
Neigh   | 0.010783   | 0.01134    | 0.011831   |   0.3 |  2.30
Comm    | 0.36266    | 0.37375    | 0.38728    |   1.0 | 75.75
Output  | 0.013943   | 0.013954   | 0.014006   |   0.0 |  2.83
Modify  | 0.0018757  | 0.0020713  | 0.0023182  |   0.2 |  0.42
Other   |            | 0.05697    |            |       | 11.55

Nlocal:            7.5 ave          11 max           4 min
Histogram: 2 3 6 0 12 13 0 8 3 1
Nghost:        573.854 ave         592 max         556 min
Histogram: 3 4 3 11 3 7 5 5 2 5
Neighs:        431.792 ave         741 max         251 min
Histogram: 2 5 12 10 9 5 4 0 0 1

Total # of neighbors = 20726
Ave neighs/atom = 57.572222
Neighbor list builds = 606
Dangerous builds = 0
Total wall time: 0:00:01
cooling down to T_1.5
LAMMPS (15 Sep 2022)
OMP_NUM_THREADS environment is not set. Defaulting to 1 thread. (src/comm.cpp:98)
  using 1 OpenMP thread(s) per MPI task
Reading restart file ...
  restart file = 15 Sep 2022, LAMMPS = 15 Sep 2022
  restoring atom style atomic from restart
  orthogonal box = (0 0 0) to (6.6943295 6.6943295 6.6943295)
  3 by 4 by 4 MPI processor grid
  restoring pair style lj/cut from restart
  360 atoms
  read_restart CPU = 0.038 seconds
Setting up annealing run
Generated 0 of 1 mixed pair_coeff terms from geometric mixing rule
Neighbor list info ...
  update: every = 1 steps, delay = 20 steps, check = yes
  max neighbors/atom: 2000, page size: 100000
  master list distance cutoff = 3
  ghost atom cutoff = 3
  binsize = 1.5, bins = 5 5 5
  1 neighbor lists, perpetual/occasional/extra = 1 0 0
  (1) pair lj/cut, perpetual
      attributes: half, newton on
      pair build: half/bin/atomonly/newton
      stencil: half/bin/3d
      bin: standard
Setting up Verlet run ...
  Unit style    : lj
  Current step  : 0
  Time step     : 0.002
Per MPI rank memory allocation (min/avg/max) = 3.961 | 3.961 | 3.961 Mbytes
   Step          Temp          E_pair         E_mol          TotEng         Press     
         0   1.5            6.2872555      0              8.5310055      80.502613    
      1000   1.4356555     -5.1341306      0             -2.9866293      15.767243    
      2000   1.4243233     -5.1350034      0             -3.0044531      15.666672    
      3000   1.4084924     -5.1417218      0             -3.0348519      15.736697    
      4000   1.4703758     -5.2620786      0             -3.0626415      14.986214    
      5000   1.517242      -5.2175134      0             -2.9479723      15.443886    
      6000   1.5279376     -5.3013879      0             -3.0158479      15.011498    
      7000   1.50749       -5.0954994      0             -2.8405456      16.059729    
      8000   1.4511956     -5.3057864      0             -3.1350396      14.855253    
      9000   1.5263166     -5.2596652      0             -2.9765499      15.105463    
     10000   1.4502023     -5.2721323      0             -3.1028714      14.938327    
Loop time of 0.526815 on 48 procs for 10000 steps with 360 atoms

Performance: 3280088.539 tau/day, 18981.994 timesteps/s, 6.834 Matom-step/s
99.1% CPU use with 48 MPI tasks x 1 OpenMP threads

MPI task timing breakdown:
Section |  min time  |  avg time  |  max time  |%varavg| %total
---------------------------------------------------------------
Pair    | 0.030187   | 0.033099   | 0.036061   |   0.8 |  6.28
Neigh   | 0.0061612  | 0.0065261  | 0.0071303  |   0.2 |  1.24
Comm    | 0.37747    | 0.38873    | 0.40502    |   1.1 | 73.79
Output  | 0.013739   | 0.013742   | 0.01379    |   0.0 |  2.61
Modify  | 0.051685   | 0.067138   | 0.078875   |   2.7 | 12.74
Other   |            | 0.01758    |            |       |  3.34

Nlocal:            7.5 ave          10 max           5 min
Histogram: 2 0 8 0 15 0 12 0 9 2
Nghost:        573.479 ave         589 max         558 min
Histogram: 2 2 4 7 11 4 11 3 1 3
Neighs:        432.854 ave         567 max         265 min
Histogram: 2 2 3 4 11 6 6 6 4 4

Total # of neighbors = 20777
Ave neighs/atom = 57.713889
Neighbor list builds = 348
Dangerous builds = 9
Total wall time: 0:00:01
cooling down to T_1.0
LAMMPS (15 Sep 2022)
OMP_NUM_THREADS environment is not set. Defaulting to 1 thread. (src/comm.cpp:98)
  using 1 OpenMP thread(s) per MPI task
Reading restart file ...
  restart file = 15 Sep 2022, LAMMPS = 15 Sep 2022
  restoring atom style atomic from restart
  orthogonal box = (0 0 0) to (6.6943295 6.6943295 6.6943295)
  3 by 4 by 4 MPI processor grid
  restoring pair style lj/cut from restart
  360 atoms
  read_restart CPU = 0.062 seconds
Setting up annealing run
Resetting global fix info from restart file:
  fix style: nvt, fix ID: 1
Generated 0 of 1 mixed pair_coeff terms from geometric mixing rule
All restart file global fix info was re-assigned
Neighbor list info ...
  update: every = 1 steps, delay = 20 steps, check = yes
  max neighbors/atom: 2000, page size: 100000
  master list distance cutoff = 3
  ghost atom cutoff = 3
  binsize = 1.5, bins = 5 5 5
  1 neighbor lists, perpetual/occasional/extra = 1 0 0
  (1) pair lj/cut, perpetual
      attributes: half, newton on
      pair build: half/bin/atomonly/newton
      stencil: half/bin/3d
      bin: standard
Setting up Verlet run ...
  Unit style    : lj
  Current step  : 0
  Time step     : 0.002
Per MPI rank memory allocation (min/avg/max) = 3.961 | 3.961 | 3.961 Mbytes
   Step          Temp          E_pair         E_mol          TotEng         Press     
         0   1             -5.2721323      0             -3.776299       14.399585    
      2000   1.0262556     -6.0462559      0             -4.5111486      9.7827424    
      4000   0.99768468    -6.0435558      0             -4.5511858      9.5343184    
      6000   1.003983      -5.9462309      0             -4.4444397      10.415118    
      8000   0.97124683    -6.0949788      0             -4.6421554      9.2872969    
     10000   0.91529049    -5.9779974      0             -4.6088754      9.8941812    
     12000   0.98643321    -6.058333       0             -4.5827933      9.9411676    
     14000   1.0920163     -5.9932261      0             -4.3597518      10.194312    
     16000   0.92042558    -5.9881393      0             -4.611336       10.051271    
     18000   0.99636055    -5.9932282      0             -4.5028389      10.083061    
     20000   1.0074102     -5.9421569      0             -4.4352391      10.325847    
     22000   1.0354884     -5.9974573      0             -4.4485392      10.252361    
     24000   0.91320138    -5.9466378      0             -4.5806408      10.115125    
     26000   1.0400006     -5.99334        0             -4.4376724      10.142585    
     28000   1.0329675     -5.9695939      0             -4.4244467      10.105832    
     30000   1.0013048     -6.0790729      0             -4.5812879      9.4205885    
     32000   1.071941      -5.8631741      0             -4.2597289      10.759686    
     34000   0.97872449    -6.0698915      0             -4.6058828      9.6194906    
     36000   1.0304121     -6.0181322      0             -4.4768074      9.8410384    
     38000   0.91733797    -5.9810481      0             -4.6088634      9.9787532    
     40000   0.97332866    -5.9973695      0             -4.541432       9.8143896    
     42000   1.1083407     -6.038364       0             -4.380471       9.9329765    
     44000   0.98055531    -6.1366083      0             -4.6698609      8.9701114    
     46000   1.0276318     -5.8918817      0             -4.3547158      10.653334    
     48000   1.029473      -5.9549766      0             -4.4150566      10.346573    
     50000   1.0257225     -5.9601432      0             -4.4258332      10.195959    
Loop time of 2.43387 on 48 procs for 50000 steps with 360 atoms

Performance: 3549901.634 tau/day, 20543.412 timesteps/s, 7.396 Matom-step/s
99.6% CPU use with 48 MPI tasks x 1 OpenMP threads

MPI task timing breakdown:
Section |  min time  |  avg time  |  max time  |%varavg| %total
---------------------------------------------------------------
Pair    | 0.14984    | 0.16272    | 0.1873     |   1.7 |  6.69
Neigh   | 0.023734   | 0.025578   | 0.027791   |   0.5 |  1.05
Comm    | 1.7806     | 1.8403     | 1.9066     |   2.4 | 75.61
Output  | 0.0077006  | 0.0077114  | 0.0078356  |   0.0 |  0.32
Modify  | 0.22506    | 0.29681    | 0.35147    |   6.0 | 12.19
Other   |            | 0.1008     |            |       |  4.14

Nlocal:            7.5 ave          10 max           5 min
Histogram: 3 0 7 0 14 0 13 0 9 2
Nghost:        578.708 ave         590 max         560 min
Histogram: 1 0 2 3 3 9 8 10 9 3
Neighs:        432.688 ave         597 max         317 min
Histogram: 6 1 8 9 6 7 6 2 1 2

Total # of neighbors = 20769
Ave neighs/atom = 57.691667
Neighbor list builds = 1363
Dangerous builds = 0
Total wall time: 0:00:03
cooling down to T_0.9
LAMMPS (15 Sep 2022)
OMP_NUM_THREADS environment is not set. Defaulting to 1 thread. (src/comm.cpp:98)
  using 1 OpenMP thread(s) per MPI task
Reading restart file ...
  restart file = 15 Sep 2022, LAMMPS = 15 Sep 2022
  restoring atom style atomic from restart
  orthogonal box = (0 0 0) to (6.6943295 6.6943295 6.6943295)
  3 by 4 by 4 MPI processor grid
  restoring pair style lj/cut from restart
  360 atoms
  read_restart CPU = 0.032 seconds
Setting up annealing run
Resetting global fix info from restart file:
  fix style: nvt, fix ID: 1
Generated 0 of 1 mixed pair_coeff terms from geometric mixing rule
All restart file global fix info was re-assigned
Neighbor list info ...
  update: every = 1 steps, delay = 25 steps, check = yes
  max neighbors/atom: 2000, page size: 100000
  master list distance cutoff = 3
  ghost atom cutoff = 3
  binsize = 1.5, bins = 5 5 5
  1 neighbor lists, perpetual/occasional/extra = 1 0 0
  (1) pair lj/cut, perpetual
      attributes: half, newton on
      pair build: half/bin/atomonly/newton
      stencil: half/bin/3d
      bin: standard
Setting up Verlet run ...
  Unit style    : lj
  Current step  : 0
  Time step     : 0.002
Per MPI rank memory allocation (min/avg/max) = 3.961 | 3.961 | 3.961 Mbytes
   Step          Temp          E_pair         E_mol          TotEng         Press     
         0   0.9           -5.9601432      0             -4.6138932      10.045511    
      5000   0.85988291    -6.1447627      0             -4.8585211      8.9867362    
     10000   0.88476415    -6.1961911      0             -4.8727314      8.5635144    
     15000   0.86911973    -6.1672999      0             -4.8672417      8.6674641    
     20000   0.8477322     -6.2354825      0             -4.9674164      8.3743795    
     25000   0.91156753    -6.0980424      0             -4.7344893      9.2420828    
     30000   0.93901346    -6.2541236      0             -4.8495159      8.3638382    
     35000   0.91041759    -6.1100921      0             -4.7482592      9.5060669    
     40000   0.87078632    -6.1752443      0             -4.8726931      8.7349001    
     45000   0.91132065    -6.1379696      0             -4.7747858      8.9397164    
     50000   0.87329678    -6.2126539      0             -4.9063475      8.5467037    
     55000   0.96781052    -6.1172247      0             -4.6695415      9.4171599    
     60000   0.97448913    -6.1368626      0             -4.6791893      9.0133537    
     65000   0.90463187    -6.3177353      0             -4.9645568      8.0056651    
     70000   0.9139854     -6.2595069      0             -4.8923371      8.1370131    
     75000   0.8933684     -5.9723102      0             -4.63598        10.068709    
     80000   0.89673695    -6.1604245      0             -4.8190555      8.8954582    
     85000   0.89634671    -6.1239092      0             -4.7831239      9.0864794    
     90000   0.90116645    -6.2195545      0             -4.8715596      8.4184453    
     95000   0.87009593    -6.1836971      0             -4.8821786      8.8029161    
    100000   0.92884512    -6.1719267      0             -4.7825292      8.8307775    
    105000   0.93524348    -6.2268428      0             -4.8278744      8.5408397    
    110000   0.85678033    -6.2022627      0             -4.9206621      8.3656313    
    115000   0.85134406    -6.1143001      0             -4.8408313      9.0230048    
    120000   0.9233732     -6.0723079      0             -4.6910955      9.2777738    
    125000   0.85915147    -6.2119155      0             -4.9267681      8.4530633    
    130000   0.87473543    -6.1512832      0             -4.8428248      8.7951792    
    135000   0.85625605    -6.1553946      0             -4.8745783      8.8390242    
    140000   0.9000847     -6.0731418      0             -4.7267651      9.4980584    
    145000   0.89443807    -6.1594245      0             -4.8214942      8.8688878    
    150000   0.87348736    -6.1625728      0             -4.8559812      8.8719097    
Loop time of 7.21383 on 48 procs for 150000 steps with 360 atoms

Performance: 3593096.823 tau/day, 20793.384 timesteps/s, 7.486 Matom-step/s
99.6% CPU use with 48 MPI tasks x 1 OpenMP threads

MPI task timing breakdown:
Section |  min time  |  avg time  |  max time  |%varavg| %total
---------------------------------------------------------------
Pair    | 0.45731    | 0.48443    | 0.56276    |   2.9 |  6.72
Neigh   | 0.06742    | 0.071672   | 0.07679    |   0.7 |  0.99
Comm    | 5.299      | 5.4596     | 5.6928     |   4.4 | 75.68
Output  | 0.014777   | 0.014791   | 0.014952   |   0.0 |  0.21
Modify  | 0.71487    | 0.92324    | 1.0884     |  10.0 | 12.80
Other   |            | 0.2602     |            |       |  3.61

Nlocal:            7.5 ave          10 max           5 min
Histogram: 4 0 8 0 12 0 13 0 6 5
Nghost:        578.042 ave         587 max         567 min
Histogram: 2 2 3 4 6 9 7 4 6 5
Neighs:        431.229 ave         587 max         252 min
Histogram: 2 3 5 7 5 6 7 4 4 5

Total # of neighbors = 20699
Ave neighs/atom = 57.497222
Neighbor list builds = 3832
Dangerous builds = 2
Total wall time: 0:00:08
cooling down to T_0.8
LAMMPS (15 Sep 2022)
OMP_NUM_THREADS environment is not set. Defaulting to 1 thread. (src/comm.cpp:98)
  using 1 OpenMP thread(s) per MPI task
Reading restart file ...
  restart file = 15 Sep 2022, LAMMPS = 15 Sep 2022
  restoring atom style atomic from restart
  orthogonal box = (0 0 0) to (6.6943295 6.6943295 6.6943295)
  3 by 4 by 4 MPI processor grid
  restoring pair style lj/cut from restart
  360 atoms
  read_restart CPU = 0.026 seconds
Setting up annealing run
Resetting global fix info from restart file:
  fix style: nvt, fix ID: 1
Generated 0 of 1 mixed pair_coeff terms from geometric mixing rule
All restart file global fix info was re-assigned
Neighbor list info ...
  update: every = 1 steps, delay = 25 steps, check = yes
  max neighbors/atom: 2000, page size: 100000
  master list distance cutoff = 3
  ghost atom cutoff = 3
  binsize = 1.5, bins = 5 5 5
  1 neighbor lists, perpetual/occasional/extra = 1 0 0
  (1) pair lj/cut, perpetual
      attributes: half, newton on
      pair build: half/bin/atomonly/newton
      stencil: half/bin/3d
      bin: standard
Setting up Verlet run ...
  Unit style    : lj
  Current step  : 0
  Time step     : 0.002
Per MPI rank memory allocation (min/avg/max) = 3.961 | 3.961 | 3.961 Mbytes
   Step          Temp          E_pair         E_mol          TotEng         Press     
         0   0.8           -6.1625728      0             -4.9659061      8.7839698    
      5000   0.77018091    -6.4079009      0             -5.2558386      7.1392014    
     10000   0.81112725    -6.3999254      0             -5.1866143      7.3186574    
     15000   0.77402343    -6.3444233      0             -5.1866132      7.5409047    
     20000   0.76392414    -6.3245757      0             -5.1818725      7.686056     
     25000   0.79949324    -6.3311516      0             -5.135243       7.8918196    
     30000   0.77118662    -6.356278       0             -5.2027113      7.4846272    
     35000   0.76250592    -6.2973592      0             -5.1567774      8.0951856    
     40000   0.81597635    -6.4798685      0             -5.2593039      6.7284728    
     45000   0.79054355    -6.2910526      0             -5.1085312      7.9847358    
     50000   0.78335375    -6.3015647      0             -5.1297981      7.823668     
     55000   0.77285179    -6.2268322      0             -5.0707747      8.1785698    
     60000   0.76837123    -6.345368       0             -5.1960127      7.487725     
     65000   0.88319954    -6.464907       0             -5.1437877      6.7995976    
     70000   0.80001996    -6.3612823      0             -5.1645857      7.4981252    
     75000   0.80247881    -6.3921922      0             -5.1918176      7.1764089    
     80000   0.80121528    -6.3773763      0             -5.1788918      7.3346868    
     85000   0.7992775     -6.3324536      0             -5.1368677      7.6924117    
     90000   0.80011147    -6.4034412      0             -5.2066078      7.2730471    
     95000   0.86596599    -6.3901349      0             -5.0947941      7.2485026    
    100000   0.8028807     -6.299387       0             -5.0984112      7.7107196    
    105000   0.83062988    -6.29095        0             -5.0484661      7.9054261    
    110000   0.79617194    -6.4143486      0             -5.2234081      7.0642341    
    115000   0.83997256    -6.4074215      0             -5.1509625      7.4315414    
    120000   0.77244501    -6.3217784      0             -5.1663294      7.6594524    
    125000   0.81105483    -6.424072       0             -5.2108692      7.213258     
    130000   0.75295105    -6.3597791      0             -5.2334898      7.4582873    
    135000   0.79323365    -6.2553366      0             -5.0687913      8.1409805    
    140000   0.82176972    -6.3873379      0             -5.1581074      7.2643849    
    145000   0.83304565    -6.2957837      0             -5.0496862      8.0482279    
    150000   0.77926153    -6.3408575      0             -5.1752121      7.6583179    
Loop time of 7.08959 on 48 procs for 150000 steps with 360 atoms

Performance: 3656065.943 tau/day, 21157.789 timesteps/s, 7.617 Matom-step/s
99.6% CPU use with 48 MPI tasks x 1 OpenMP threads

MPI task timing breakdown:
Section |  min time  |  avg time  |  max time  |%varavg| %total
---------------------------------------------------------------
Pair    | 0.44702    | 0.48066    | 0.52556    |   2.5 |  6.78
Neigh   | 0.063182   | 0.066886   | 0.069732   |   0.6 |  0.94
Comm    | 5.2378     | 5.3903     | 5.6205     |   4.3 | 76.03
Output  | 0.020381   | 0.020395   | 0.020549   |   0.0 |  0.29
Modify  | 0.63084    | 0.85903    | 1.0068     |  11.3 | 12.12
Other   |            | 0.2724     |            |       |  3.84

Nlocal:            7.5 ave          10 max           5 min
Histogram: 2 0 8 0 13 0 17 0 5 3
Nghost:        571.146 ave         586 max         553 min
Histogram: 3 1 4 6 3 8 11 6 3 3
Neighs:        431.917 ave         608 max         250 min
Histogram: 1 0 5 9 10 9 7 2 1 4

Total # of neighbors = 20732
Ave neighs/atom = 57.588889
Neighbor list builds = 3588
Dangerous builds = 0
Total wall time: 0:00:08
cooling down to T_0.7
LAMMPS (15 Sep 2022)
OMP_NUM_THREADS environment is not set. Defaulting to 1 thread. (src/comm.cpp:98)
  using 1 OpenMP thread(s) per MPI task
Reading restart file ...
  restart file = 15 Sep 2022, LAMMPS = 15 Sep 2022
  restoring atom style atomic from restart
  orthogonal box = (0 0 0) to (6.6943295 6.6943295 6.6943295)
  3 by 4 by 4 MPI processor grid
  restoring pair style lj/cut from restart
  360 atoms
  read_restart CPU = 0.048 seconds
Setting up annealing run
Resetting global fix info from restart file:
  fix style: nvt, fix ID: 1
Generated 0 of 1 mixed pair_coeff terms from geometric mixing rule
All restart file global fix info was re-assigned
Neighbor list info ...
  update: every = 1 steps, delay = 25 steps, check = yes
  max neighbors/atom: 2000, page size: 100000
  master list distance cutoff = 3
  ghost atom cutoff = 3
  binsize = 1.5, bins = 5 5 5
  1 neighbor lists, perpetual/occasional/extra = 1 0 0
  (1) pair lj/cut, perpetual
      attributes: half, newton on
      pair build: half/bin/atomonly/newton
      stencil: half/bin/3d
      bin: standard
Setting up Verlet run ...
  Unit style    : lj
  Current step  : 0
  Time step     : 0.003
Per MPI rank memory allocation (min/avg/max) = 3.961 | 3.961 | 3.961 Mbytes
   Step          Temp          E_pair         E_mol          TotEng         Press     
         0   0.7           -6.3408575      0             -5.2937742      7.5634683    
      6000   0.65906822    -6.457232       0             -5.4713758      6.6697647    
     12000   0.65720955    -6.521061       0             -5.5379851      6.2377877    
     18000   0.68526485    -6.5441675      0             -5.5191255      6.0651729    
     24000   0.71942728    -6.4801756      0             -5.4040323      6.7326625    
     30000   0.66315792    -6.5579896      0             -5.5660159      6.2572752    
     36000   0.68294651    -6.5321259      0             -5.5105518      6.4552585    
     42000   0.6822382     -6.5591432      0             -5.5386286      6.3640103    
     48000   0.68998323    -6.4671468      0             -5.4350469      6.6012902    
     54000   0.73832887    -6.5246003      0             -5.4201834      6.457621     
     60000   0.66981593    -6.5786035      0             -5.5766705      6.0235066    
     66000   0.73006447    -6.4891422      0             -5.3970874      6.5213456    
     72000   0.74075017    -6.5470392      0             -5.4390004      6.3190855    
     78000   0.70533273    -6.4857967      0             -5.4307365      6.7431949    
     84000   0.70208182    -6.5184669      0             -5.4682695      6.4951729    
     90000   0.6965251     -6.5506127      0             -5.5087272      6.3966254    
     96000   0.74305819    -6.5595703      0             -5.4480791      6.3069352    
    102000   0.65280497    -6.5243504      0             -5.547863       6.2774368    
    108000   0.71892935    -6.4706192      0             -5.3952207      6.5978309    
    114000   0.73598286    -6.4800473      0             -5.3791396      6.5820824    
    120000   0.7794682     -6.4847925      0             -5.318838       6.6261409    
    126000   0.68339973    -6.4085875      0             -5.3863354      6.95928      
    132000   0.70790325    -6.4923301      0             -5.4334248      6.5384373    
    138000   0.75899455    -6.5743699      0             -5.4390405      6.1978856    
    144000   0.74701816    -6.5693992      0             -5.4519846      6.0149896    
    150000   0.70015473    -6.4950745      0             -5.4477597      6.6403612    
    156000   0.70421175    -6.5579762      0             -5.5045928      6.2346279    
    162000   0.69264419    -6.5370056      0             -5.5009253      6.3032417    
    168000   0.70633092    -6.4850845      0             -5.4285312      6.565866     
    174000   0.72988129    -6.4443385      0             -5.3525578      6.9383162    
    180000   0.69239114    -6.4801525      0             -5.4444507      6.7514819    
Loop time of 8.61392 on 48 procs for 180000 steps with 360 atoms

Performance: 5416346.525 tau/day, 20896.399 timesteps/s, 7.523 Matom-step/s
99.6% CPU use with 48 MPI tasks x 1 OpenMP threads

MPI task timing breakdown:
Section |  min time  |  avg time  |  max time  |%varavg| %total
---------------------------------------------------------------
Pair    | 0.55629    | 0.58837    | 0.63737    |   2.5 |  6.83
Neigh   | 0.1059     | 0.11036    | 0.11724    |   0.8 |  1.28
Comm    | 6.4047     | 6.6005     | 6.8307     |   4.4 | 76.63
Output  | 0.013542   | 0.013559   | 0.013721   |   0.0 |  0.16
Modify  | 0.84963    | 1.1021     | 1.2886     |  10.7 | 12.79
Other   |            | 0.199      |            |       |  2.31

Nlocal:            7.5 ave          10 max           5 min
Histogram: 2 0 9 0 12 0 15 0 8 2
Nghost:        576.542 ave         592 max         564 min
Histogram: 3 1 6 12 5 10 5 5 0 1
Neighs:        432.312 ave         599 max         279 min
Histogram: 2 1 10 4 6 9 9 5 1 1

Total # of neighbors = 20751
Ave neighs/atom = 57.641667
Neighbor list builds = 5916
Dangerous builds = 425
Total wall time: 0:00:09
cooling down to T_0.65
LAMMPS (15 Sep 2022)
OMP_NUM_THREADS environment is not set. Defaulting to 1 thread. (src/comm.cpp:98)
  using 1 OpenMP thread(s) per MPI task
Reading restart file ...
  restart file = 15 Sep 2022, LAMMPS = 15 Sep 2022
  restoring atom style atomic from restart
  orthogonal box = (0 0 0) to (6.6943295 6.6943295 6.6943295)
  3 by 4 by 4 MPI processor grid
  restoring pair style lj/cut from restart
  360 atoms
  read_restart CPU = 0.043 seconds
Setting up annealing run
Resetting global fix info from restart file:
  fix style: nvt, fix ID: 1
Generated 0 of 1 mixed pair_coeff terms from geometric mixing rule
All restart file global fix info was re-assigned
Neighbor list info ...
  update: every = 1 steps, delay = 25 steps, check = yes
  max neighbors/atom: 2000, page size: 100000
  master list distance cutoff = 3
  ghost atom cutoff = 3
  binsize = 1.5, bins = 5 5 5
  1 neighbor lists, perpetual/occasional/extra = 1 0 0
  (1) pair lj/cut, perpetual
      attributes: half, newton on
      pair build: half/bin/atomonly/newton
      stencil: half/bin/3d
      bin: standard
Setting up Verlet run ...
  Unit style    : lj
  Current step  : 0
  Time step     : 0.003
Per MPI rank memory allocation (min/avg/max) = 3.961 | 3.961 | 3.961 Mbytes
   Step          Temp          E_pair         E_mol          TotEng         Press     
         0   0.65          -6.4801525      0             -5.5078608      6.7007538    
     70000   0.6981163     -6.5319786      0             -5.487713       6.5516467    
    140000   0.65127469    -6.644899       0             -5.6707006      5.5112824    
    210000   0.65638932    -6.6363993      0             -5.6545503      5.5907821    
    280000   0.61964312    -6.6614304      0             -5.7345476      5.4087337    
    350000   0.63936048    -6.5407591      0             -5.5843824      6.063163     
Loop time of 17.9389 on 48 procs for 350000 steps with 360 atoms

Performance: 5057166.240 tau/day, 19510.672 timesteps/s, 7.024 Matom-step/s
99.5% CPU use with 48 MPI tasks x 1 OpenMP threads

MPI task timing breakdown:
Section |  min time  |  avg time  |  max time  |%varavg| %total
---------------------------------------------------------------
Pair    | 1.0807     | 1.1423     | 1.2409     |   3.0 |  6.37
Neigh   | 0.19705    | 0.20575    | 0.22243    |   1.3 |  1.15
Comm    | 13.154     | 13.593     | 14.125     |   6.5 | 75.77
Output  | 0.020919   | 0.020921   | 0.020974   |   0.0 |  0.12
Modify  | 2.0566     | 2.5614     | 2.9682     |  14.8 | 14.28
Other   |            | 0.4155     |            |       |  2.32

Nlocal:            7.5 ave          11 max           5 min
Histogram: 1 12 0 12 0 12 8 0 2 1
Nghost:        577.167 ave         593 max         566 min
Histogram: 4 5 9 6 10 3 5 1 4 1
Neighs:        431.771 ave         599 max         290 min
Histogram: 2 5 6 6 10 2 10 4 2 1

Total # of neighbors = 20725
Ave neighs/atom = 57.569444
Neighbor list builds = 10995
Dangerous builds = 409
Total wall time: 0:00:18
cooling down to T_0.6
LAMMPS (15 Sep 2022)
OMP_NUM_THREADS environment is not set. Defaulting to 1 thread. (src/comm.cpp:98)
  using 1 OpenMP thread(s) per MPI task
Reading restart file ...
  restart file = 15 Sep 2022, LAMMPS = 15 Sep 2022
  restoring atom style atomic from restart
  orthogonal box = (0 0 0) to (6.6943295 6.6943295 6.6943295)
  3 by 4 by 4 MPI processor grid
  restoring pair style lj/cut from restart
  360 atoms
  read_restart CPU = 0.046 seconds
Setting up annealing run
Resetting global fix info from restart file:
  fix style: nvt, fix ID: 1
Generated 0 of 1 mixed pair_coeff terms from geometric mixing rule
All restart file global fix info was re-assigned
Neighbor list info ...
  update: every = 1 steps, delay = 25 steps, check = yes
  max neighbors/atom: 2000, page size: 100000
  master list distance cutoff = 3
  ghost atom cutoff = 3
  binsize = 1.5, bins = 5 5 5
  1 neighbor lists, perpetual/occasional/extra = 1 0 0
  (1) pair lj/cut, perpetual
      attributes: half, newton on
      pair build: half/bin/atomonly/newton
      stencil: half/bin/3d
      bin: standard
Setting up Verlet run ...
  Unit style    : lj
  Current step  : 0
  Time step     : 0.003
Per MPI rank memory allocation (min/avg/max) = 3.961 | 3.961 | 3.961 Mbytes
   Step          Temp          E_pair         E_mol          TotEng         Press     
         0   0.6           -6.5407591      0             -5.6432591      6.0160616    
     50000   0.59696547    -6.7228296      0             -5.8298688      5.0788343    
    100000   0.66019382    -6.7218862      0             -5.7343463      5.1547064    
    150000   0.62092816    -6.7549656      0             -5.8261605      4.9176399    
    200000   0.61305797    -6.6800454      0             -5.7630129      5.2097168    
    250000   0.61015411    -6.69252        0             -5.7798311      5.3582771    
    300000   0.57866826    -6.757063       0             -5.8914718      4.8146855    
    350000   0.61882254    -6.7260634      0             -5.8004081      4.9555372    
    400000   0.55825273    -6.6541195      0             -5.8190665      5.4610763    
    450000   0.62183727    -6.7268489      0             -5.7966839      5.0475095    
    500000   0.61482809    -6.692633       0             -5.7729527      5.2535022    
    550000   0.57549299    -6.7372956      0             -5.876454       4.9124443    
    600000   0.60419235    -6.7387012      0             -5.8349301      4.8743209    
    650000   0.56238572    -6.6966187      0             -5.8553834      5.1461638    
    700000   0.60889029    -6.6874126      0             -5.7766142      5.2793961    
    750000   0.64497698    -6.692599       0             -5.727821       5.2651311    
    800000   0.62749817    -6.7218474      0             -5.7832147      5.0303635    
    850000   0.56975269    -6.6903441      0             -5.8380891      5.2458656    
    900000   0.60659734    -6.6518479      0             -5.7444794      5.4909091    
    950000   0.57961757    -6.73548        0             -5.8684688      4.9537873    
   1000000   0.6224456     -6.7238552      0             -5.7927803      5.0735793    
Loop time of 47.3166 on 48 procs for 1000000 steps with 360 atoms

Performance: 5477991.520 tau/day, 21134.227 timesteps/s, 7.608 Matom-step/s
99.7% CPU use with 48 MPI tasks x 1 OpenMP threads

MPI task timing breakdown:
Section |  min time  |  avg time  |  max time  |%varavg| %total
---------------------------------------------------------------
Pair    | 3.0864     | 3.2316     | 3.4513     |   4.9 |  6.83
Neigh   | 0.53635    | 0.55464    | 0.58011    |   1.4 |  1.17
Comm    | 35.044     | 36.29      | 37.694     |  11.0 | 76.70
Output  | 0.022466   | 0.022479   | 0.022808   |   0.0 |  0.05
Modify  | 4.5564     | 5.8824     | 6.9474     |  26.5 | 12.43
Other   |            | 1.336      |            |       |  2.82

Nlocal:            7.5 ave          11 max           5 min
Histogram: 2 7 0 17 0 14 4 0 3 1
Nghost:        577.354 ave         599 max         561 min
Histogram: 2 4 12 5 6 10 3 3 2 1
Neighs:        434.562 ave         642 max         290 min
Histogram: 2 6 9 7 8 8 3 3 1 1

Total # of neighbors = 20859
Ave neighs/atom = 57.941667
Neighbor list builds = 29893
Dangerous builds = 505
Total wall time: 0:00:48
cooling down to T_0.55
LAMMPS (15 Sep 2022)
OMP_NUM_THREADS environment is not set. Defaulting to 1 thread. (src/comm.cpp:98)
  using 1 OpenMP thread(s) per MPI task
Reading restart file ...
  restart file = 15 Sep 2022, LAMMPS = 15 Sep 2022
  restoring atom style atomic from restart
  orthogonal box = (0 0 0) to (6.6943295 6.6943295 6.6943295)
  3 by 4 by 4 MPI processor grid
  restoring pair style lj/cut from restart
  360 atoms
  read_restart CPU = 0.040 seconds
Setting up annealing run
Resetting global fix info from restart file:
  fix style: nvt, fix ID: 1
Generated 0 of 1 mixed pair_coeff terms from geometric mixing rule
All restart file global fix info was re-assigned
Neighbor list info ...
  update: every = 1 steps, delay = 25 steps, check = yes
  max neighbors/atom: 2000, page size: 100000
  master list distance cutoff = 3
  ghost atom cutoff = 3
  binsize = 1.5, bins = 5 5 5
  1 neighbor lists, perpetual/occasional/extra = 1 0 0
  (1) pair lj/cut, perpetual
      attributes: half, newton on
      pair build: half/bin/atomonly/newton
      stencil: half/bin/3d
      bin: standard
Setting up Verlet run ...
  Unit style    : lj
  Current step  : 0
  Time step     : 0.003
Per MPI rank memory allocation (min/avg/max) = 3.961 | 3.961 | 3.961 Mbytes
   Step          Temp          E_pair         E_mol          TotEng         Press     
         0   0.55          -6.7238552      0             -5.9011468      4.9868861    
     30000   0.5327105     -6.7774511      0             -5.980605       4.7021502    
     60000   0.53281666    -6.8787969      0             -6.081792       4.0298911    
     90000   0.54882767    -6.7916781      0             -5.9707234      4.4646205    
    120000   0.56036096    -6.8166517      0             -5.9784451      4.4815271    
    150000   0.55764306    -6.799227       0             -5.9650859      4.4509088    
    180000   0.56730979    -6.7896375      0             -5.9410366      4.4700387    
    210000   0.56736675    -6.8829719      0             -6.0342858      3.9926108    
    240000   0.5427762     -6.829878       0             -6.0179753      4.2403722    
    270000   0.51427641    -6.8627553      0             -6.0934835      3.9224653    
    300000   0.56767268    -6.8592761      0             -6.0101323      4.2160299    
    330000   0.57520909    -6.8140034      0             -5.9535865      4.5232321    
    360000   0.57371604    -6.7852407      0             -5.9270572      4.5315012    
    390000   0.563391      -6.7845565      0             -5.9418175      4.432157     
    420000   0.54517937    -6.8614775      0             -6.04598        4.1140687    
    450000   0.55264574    -6.8064448      0             -5.9797789      4.5013518    
    480000   0.56381585    -6.7810732      0             -5.9376987      4.7651157    
    510000   0.55562767    -6.7533893      0             -5.9222629      4.8372003    
    540000   0.55360442    -6.8388835      0             -6.0107835      4.3345283    
    570000   0.55384464    -6.8458217      0             -6.0173624      4.2435436    
    600000   0.48832121    -6.8318247      0             -6.1013776      4.2090509    
    630000   0.5702149     -6.8092432      0             -5.9562968      4.4664432    
    660000   0.56714828    -6.7975889      0             -5.9492296      4.3982389    
    690000   0.58254623    -6.8389951      0             -5.967603       4.3989159    
    720000   0.6189811     -6.7983171      0             -5.8724246      4.6501582    
    750000   0.53876742    -6.8605198      0             -6.0546136      4.1251824    
    780000   0.54126155    -6.8064081      0             -5.996771       4.5206674    
    810000   0.54518053    -6.7824354      0             -5.9669362      4.5056395    
    840000   0.58253945    -6.8391852      0             -5.9678033      4.3290635    
    870000   0.53832101    -6.7723852      0             -5.9671467      4.7185954    
    900000   0.59128654    -6.8258694      0             -5.9414033      4.46806      
    930000   0.53843862    -6.7946076      0             -5.9891932      4.4977839    
    960000   0.56326423    -6.7749299      0             -5.9323805      4.5458877    
    990000   0.52436797    -6.8358928      0             -6.0515257      4.2385241    
   1020000   0.5241011     -6.8721147      0             -6.0881468      4.0230571    
   1050000   0.56622019    -6.7895524      0             -5.9425814      4.5835354    
   1080000   0.56225679    -6.8137954      0             -5.9727529      4.3502225    
   1110000   0.55784117    -6.8278075      0             -5.9933701      4.2766337    
   1140000   0.51179831    -6.8018873      0             -6.0363224      4.5100223    
   1170000   0.5160876     -6.8170319      0             -6.0450509      4.306943     
   1200000   0.51261822    -6.7935398      0             -6.0267484      4.4979001    
   1230000   0.54788912    -6.8036793      0             -5.9841285      4.4364636    
   1260000   0.5696827     -6.8039418      0             -5.9517915      4.5198518    
   1290000   0.53979031    -6.7760947      0             -5.9686584      4.513865     
   1320000   0.57869405    -6.8043072      0             -5.9386773      4.5219423    
   1350000   0.59657834    -6.8689743      0             -5.9765926      4.2084127    
   1380000   0.54199109    -6.8830104      0             -6.0722821      4.1403921    
   1410000   0.5434987     -6.7665052      0             -5.9535217      4.6330824    
   1440000   0.50882059    -6.7917601      0             -6.0306493      4.5708698    
   1470000   0.54871883    -6.8006441      0             -5.9798522      4.520725     
   1500000   0.55175192    -6.8733033      0             -6.0479744      4.216027     
   1530000   0.59011578    -6.8368779      0             -5.954163       4.4656521    
   1560000   0.52831896    -6.8114666      0             -6.0211895      4.4874238    
   1590000   0.56843396    -6.7572782      0             -5.9069957      4.6391229    
   1620000   0.50152383    -6.7873495      0             -6.0371534      4.5859578    
   1650000   0.5487272     -6.7956267      0             -5.9748223      4.4429955    
   1680000   0.57323901    -6.7847509      0             -5.9272809      4.5469676    
   1710000   0.57105788    -6.8033499      0             -5.9491425      4.5744609    
   1740000   0.50689671    -6.7806043      0             -6.0223713      4.5417576    
   1770000   0.53117509    -6.8384346      0             -6.0438852      4.3888711    
   1800000   0.58472743    -6.7279736      0             -5.8533188      4.9498007    
   1830000   0.52075888    -6.8699494      0             -6.0909809      4.0337155    
   1860000   0.55849479    -6.8035008      0             -5.9680857      4.2591922    
   1890000   0.53973012    -6.7714726      0             -5.9641263      4.6703857    
   1920000   0.6014942     -6.8204875      0             -5.9207524      4.5126935    
   1950000   0.51333686    -6.8297118      0             -6.0618455      4.4119131    
   1980000   0.55318839    -6.8073948      0             -5.9799172      4.5286107    
   2010000   0.54133316    -6.7706418      0             -5.9608976      4.733319     
   2040000   0.53593821    -6.7568702      0             -5.9551959      4.6214601    
   2070000   0.53769757    -6.7873802      0             -5.9830743      4.4978422    
   2100000   0.59982478    -6.8577355      0             -5.9604977      4.1623525    
   2130000   0.5981059     -6.8393103      0             -5.9446435      4.3294095    
   2160000   0.54603189    -6.7749597      0             -5.958187       4.6506289    
   2190000   0.58541503    -6.7693766      0             -5.8936933      4.7249283    
   2220000   0.52955649    -6.7904723      0             -5.998344       4.4998141    
   2250000   0.54163308    -6.818678       0             -6.0084851      4.3675489    
   2280000   0.54177966    -6.8337677      0             -6.0233556      4.2729249    
   2310000   0.59762414    -6.8420314      0             -5.9480853      4.2449335    
   2340000   0.51755304    -6.7368462      0             -5.9626732      4.8037393    
   2370000   0.59715711    -6.7517444      0             -5.8584969      4.6226538    
   2400000   0.54564619    -6.777597       0             -5.9614013      4.6113106    
   2430000   0.52814799    -6.8261148      0             -6.0360934      4.2719671    
   2460000   0.52836401    -6.8835009      0             -6.0931564      3.8807734    
   2490000   0.54837056    -6.8479482      0             -6.0276772      4.0513539    
   2520000   0.58768346    -6.835519       0             -5.9564425      4.319293     
   2550000   0.52844221    -6.7310524      0             -5.9405909      4.9458737    
   2580000   0.56609506    -6.8227029      0             -5.975919       4.4043377    
   2610000   0.55604568    -6.7922169      0             -5.9604652      4.6286894    
   2640000   0.58353244    -6.7666492      0             -5.8937819      4.8789223    
   2670000   0.55915355    -6.739558       0             -5.9031575      4.8785912    
   2700000   0.59339087    -6.8257069      0             -5.938093       4.3895747    
   2730000   0.57621914    -6.8193724      0             -5.9574446      4.3900143    
   2760000   0.5630351     -6.7773012      0             -5.9350945      4.7019321    
   2790000   0.53793912    -6.7806741      0             -5.9760068      4.548723     
   2820000   0.5377148     -6.8256047      0             -6.021273       4.4390431    
   2850000   0.57029146    -6.8030643      0             -5.9500033      4.4851433    
   2880000   0.57159096    -6.7610941      0             -5.9060893      4.8601861    
   2910000   0.57442102    -6.7679681      0             -5.90873        4.7970541    
   2940000   0.54018552    -6.8006318      0             -5.9926043      4.4686617    
   2970000   0.56209724    -6.7413997      0             -5.9005959      4.9028123    
   3000000   0.59905009    -6.8409908      0             -5.9449118      4.4172508    
Loop time of 143.144 on 48 procs for 3000000 steps with 360 atoms

Performance: 5432279.625 tau/day, 20957.869 timesteps/s, 7.545 Matom-step/s
99.7% CPU use with 48 MPI tasks x 1 OpenMP threads

MPI task timing breakdown:
Section |  min time  |  avg time  |  max time  |%varavg| %total
---------------------------------------------------------------
Pair    | 9.0702     | 9.715      | 10.582     |  10.7 |  6.79
Neigh   | 1.5087     | 1.5888     | 1.7527     |   3.7 |  1.11
Comm    | 106.18     | 109.18     | 113.27     |  17.7 | 76.27
Output  | 0.020094   | 0.020154   | 0.021273   |   0.1 |  0.01
Modify  | 13.987     | 18.166     | 21.4       |  42.5 | 12.69
Other   |            | 4.471      |            |       |  3.12

Nlocal:            7.5 ave          11 max           4 min
Histogram: 1 3 7 0 13 12 0 9 2 1
Nghost:        567.979 ave         581 max         558 min
Histogram: 4 3 3 15 7 7 3 0 3 3
Neighs:        433.083 ave         660 max         258 min
Histogram: 2 3 6 12 7 7 7 2 0 2

Total # of neighbors = 20788
Ave neighs/atom = 57.744444
Neighbor list builds = 84993
Dangerous builds = 618
Total wall time: 0:02:23
cooling down to T_0.5
LAMMPS (15 Sep 2022)
OMP_NUM_THREADS environment is not set. Defaulting to 1 thread. (src/comm.cpp:98)
  using 1 OpenMP thread(s) per MPI task
Reading restart file ...
  restart file = 15 Sep 2022, LAMMPS = 15 Sep 2022
  restoring atom style atomic from restart
  orthogonal box = (0 0 0) to (6.6943295 6.6943295 6.6943295)
  3 by 4 by 4 MPI processor grid
  restoring pair style lj/cut from restart
  360 atoms
  read_restart CPU = 0.048 seconds
Setting up annealing run
Resetting global fix info from restart file:
  fix style: nvt, fix ID: 1
Generated 0 of 1 mixed pair_coeff terms from geometric mixing rule
All restart file global fix info was re-assigned
Neighbor list info ...
  update: every = 1 steps, delay = 25 steps, check = yes
  max neighbors/atom: 2000, page size: 100000
  master list distance cutoff = 3
  ghost atom cutoff = 3
  binsize = 1.5, bins = 5 5 5
  1 neighbor lists, perpetual/occasional/extra = 1 0 0
  (1) pair lj/cut, perpetual
      attributes: half, newton on
      pair build: half/bin/atomonly/newton
      stencil: half/bin/3d
      bin: standard
Setting up Verlet run ...
  Unit style    : lj
  Current step  : 0
  Time step     : 0.003
Per MPI rank memory allocation (min/avg/max) = 3.961 | 3.961 | 3.961 Mbytes
   Step          Temp          E_pair         E_mol          TotEng         Press     
         0   0.5           -6.8409908      0             -6.0930742      4.2987209    
    100000   0.48912857    -6.9349107      0             -6.2032559      3.6504611    
    200000   0.51344462    -6.9256283      0             -6.1576008      3.7138047    
    300000   0.48392209    -6.9357067      0             -6.2118399      3.6393139    
    400000   0.50831264    -6.8496076      0             -6.0892566      4.0545275    
    500000   0.47475068    -6.9303265      0             -6.2201786      3.5085692    
    600000   0.50323845    -6.9576328      0             -6.2048719      3.3270002    
    700000   0.51747855    -6.9849552      0             -6.2108935      3.3259878    
    800000   0.5234261     -6.9061329      0             -6.1231747      3.7656702    
    900000   0.55111447    -6.9192228      0             -6.0948474      3.7463226    
   1000000   0.50377333    -6.8575237      0             -6.1039628      4.0185662    
   1100000   0.48617229    -6.9103578      0             -6.1831251      3.8232766    
   1200000   0.54799941    -6.922314       0             -6.1025982      3.7428683    
   1300000   0.51465147    -6.8354866      0             -6.0656538      4.2880734    
   1400000   0.50916437    -6.9333696      0             -6.1717445      3.6923868    
   1500000   0.46994406    -6.9254233      0             -6.2224653      3.5706711    
   1600000   0.50064448    -6.8911796      0             -6.1422989      3.9301052    
   1700000   0.4715684     -6.8973404      0             -6.1919527      3.7767925    
   1800000   0.50629418    -6.9123061      0             -6.1549744      3.7361232    
   1900000   0.50132635    -6.9071486      0             -6.157248       3.7755106    
   2000000   0.49215597    -6.9338651      0             -6.1976818      3.6491734    
   2100000   0.49938272    -6.9480178      0             -6.2010245      3.5395158    
   2200000   0.47870269    -6.9385643      0             -6.2225048      3.6238876    
   2300000   0.54050116    -6.8306629      0             -6.0221632      4.3517474    
   2400000   0.46340966    -6.9301116      0             -6.236928       3.7089718    
   2500000   0.5079399     -6.9410208      0             -6.1812274      3.5624476    
   2600000   0.53826686    -6.9153735      0             -6.110216       3.9861464    
   2700000   0.48854272    -6.8538514      0             -6.1230729      3.9389163    
   2800000   0.52904513    -6.9047301      0             -6.1133668      3.9060166    
   2900000   0.50247391    -6.8862275      0             -6.1346102      3.8388244    
   3000000   0.49978265    -6.8438421      0             -6.0962505      4.1119907    
   3100000   0.49384379    -6.9237506      0             -6.1850426      3.6021885    
   3200000   0.49751545    -6.9150029      0             -6.1708027      3.6307112    
   3300000   0.52035579    -6.8946657      0             -6.1163001      3.8424969    
   3400000   0.49047886    -6.8795438      0             -6.1458692      3.8853165    
   3500000   0.4890746     -6.9021205      0             -6.1705464      3.7377796    
   3600000   0.54091369    -6.843544       0             -6.0344273      4.1720685    
   3700000   0.48458991    -6.8845293      0             -6.1596636      4.0345409    
   3800000   0.48956142    -6.9669353      0             -6.234633       3.3518714    
   3900000   0.52322708    -6.8833717      0             -6.1007112      3.9679355    
   4000000   0.49605234    -6.8965571      0             -6.1545454      3.9151965    
   4100000   0.51210118    -6.8503385      0             -6.0843204      4.192438     
   4200000   0.50518243    -6.9722626      0             -6.2165938      3.3241085    
   4300000   0.49426763    -6.8544874      0             -6.1151454      4.2123109    
   4400000   0.46960313    -6.8359805      0             -6.1335325      4.2672838    
   4500000   0.50349272    -6.8090863      0             -6.0559451      4.3503876    
   4600000   0.52118966    -6.9319337      0             -6.1523208      3.5669342    
   4700000   0.51755255    -6.8560202      0             -6.0818479      4.0018065    
   4800000   0.516167      -6.9076948      0             -6.1355949      3.793937     
   4900000   0.48100577    -6.9185012      0             -6.1989968      3.7329558    
   5000000   0.50742391    -6.8943541      0             -6.1353325      3.85529      
   5100000   0.47835937    -6.9151559      0             -6.19961        3.6683731    
   5200000   0.52460084    -6.9454663      0             -6.1607509      3.4665769    
   5300000   0.48980906    -6.9286528      0             -6.1959801      3.59212      
   5400000   0.51293908    -6.9280577      0             -6.1607863      3.5996466    
   5500000   0.5106576     -6.9335341      0             -6.1696754      3.6323669    
   5600000   0.4965469     -6.8799628      0             -6.1372114      3.9186018    
   5700000   0.5094881     -6.8580204      0             -6.0959111      4.0818878    
   5800000   0.4986908     -6.8064193      0             -6.060461       4.3661572    
   5900000   0.51182074    -6.8796629      0             -6.1140644      3.8457529    
   6000000   0.50416505    -6.8676121      0             -6.1134652      3.9671857    
   6100000   0.49709794    -6.9180168      0             -6.1744411      3.7462957    
   6200000   0.49954507    -6.9245416      0             -6.1773054      3.7496896    
   6300000   0.47257544    -6.9401001      0             -6.233206       3.5966527    
   6400000   0.49765236    -6.9436626      0             -6.1992576      3.5845148    
   6500000   0.45083556    -6.9385199      0             -6.264145       3.6014346    
   6600000   0.52640064    -6.9317098      0             -6.1443021      3.6006717    
   6700000   0.48527702    -6.8504126      0             -6.124519       4.110428     
   6800000   0.50277747    -6.9178619      0             -6.1657906      3.6658371    
   6900000   0.46779832    -6.9173408      0             -6.2175925      3.7755462    
   7000000   0.45254511    -6.9699101      0             -6.292978       3.4487543    
   7100000   0.47843608    -6.8762313      0             -6.1605706      3.8734424    
   7200000   0.49816053    -6.9118397      0             -6.1666745      3.7785732    
   7300000   0.53426608    -6.8986852      0             -6.0995122      3.83765      
   7400000   0.51867703    -6.8964543      0             -6.1205999      3.8207524    
   7500000   0.50562316    -6.8504055      0             -6.0940776      4.2199048    
   7600000   0.49072586    -6.9848971      0             -6.250853       3.2824262    
   7700000   0.49789179    -6.981971       0             -6.2372079      3.4008766    
   7800000   0.50530011    -6.9413621      0             -6.1855173      3.5226739    
   7900000   0.46278089    -6.8892325      0             -6.1969894      3.7999078    
   8000000   0.50435031    -6.8409128      0             -6.0864888      4.161806     
   8100000   0.48872274    -6.9528576      0             -6.2218098      3.4133955    
   8200000   0.45634178    -6.9731889      0             -6.2905777      3.3834858    
   8300000   0.53823845    -6.9888866      0             -6.1837716      3.2608423    
   8400000   0.50229198    -6.9516837      0             -6.2003386      3.4541993    
   8500000   0.49338008    -6.9743932      0             -6.2363788      3.485903     
   8600000   0.52861962    -6.8920884      0             -6.1013616      3.9609468    
   8700000   0.49157241    -6.8864626      0             -6.1511522      3.8930149    
   8800000   0.51094357    -6.9563796      0             -6.1920932      3.309978     
   8900000   0.54466489    -6.8939976      0             -6.0792697      4.0995277    
   9000000   0.49813901    -6.8943947      0             -6.1492617      3.8082926    
   9100000   0.50113116    -6.8682935      0             -6.1186848      4.0585537    
   9200000   0.52524258    -6.9669095      0             -6.1812342      3.4446382    
   9300000   0.53737716    -6.8853844      0             -6.0815577      4.0569393    
   9400000   0.4696726     -6.8467823      0             -6.1442303      4.0808483    
   9500000   0.50293585    -6.9234233      0             -6.1711151      3.6322759    
   9600000   0.49407118    -6.9323821      0             -6.193334       3.5276365    
   9700000   0.50552633    -6.9471733      0             -6.1909902      3.4548376    
   9800000   0.44221343    -6.9005139      0             -6.2390363      3.735666     
   9900000   0.54120312    -6.9120614      0             -6.1025117      3.7666467    
  10000000   0.51314193    -6.9043025      0             -6.1367277      3.8168778    
Loop time of 475.248 on 48 procs for 10000000 steps with 360 atoms

Performance: 5453998.864 tau/day, 21041.662 timesteps/s, 7.575 Matom-step/s
99.6% CPU use with 48 MPI tasks x 1 OpenMP threads

MPI task timing breakdown:
Section |  min time  |  avg time  |  max time  |%varavg| %total
---------------------------------------------------------------
Pair    | 30.087     | 32.083     | 33.919     |  15.4 |  6.75
Neigh   | 4.7558     | 4.9332     | 5.1732     |   4.3 |  1.04
Comm    | 353.17     | 363.38     | 376.51     |  34.0 | 76.46
Output  | 0.034361   | 0.034452   | 0.036442   |   0.2 |  0.01
Modify  | 45.054     | 58.741     | 69.485     |  85.0 | 12.36
Other   |            | 16.07      |            |       |  3.38

Nlocal:            7.5 ave          11 max           3 min
Histogram: 1 0 1 7 0 16 15 3 4 1
Nghost:        575.438 ave         589 max         561 min
Histogram: 3 4 5 5 3 4 9 11 3 1
Neighs:        434.938 ave         597 max         198 min
Histogram: 1 0 2 3 7 12 11 4 5 3

Total # of neighbors = 20877
Ave neighs/atom = 57.991667
Neighbor list builds = 265780
Dangerous builds = 676
Total wall time: 0:07:55
cooling down to T_0.475
LAMMPS (15 Sep 2022)
OMP_NUM_THREADS environment is not set. Defaulting to 1 thread. (src/comm.cpp:98)
  using 1 OpenMP thread(s) per MPI task
Reading restart file ...
  restart file = 15 Sep 2022, LAMMPS = 15 Sep 2022
  restoring atom style atomic from restart
  orthogonal box = (0 0 0) to (6.6943295 6.6943295 6.6943295)
  3 by 4 by 4 MPI processor grid
  restoring pair style lj/cut from restart
  360 atoms
  read_restart CPU = 0.038 seconds
Setting up annealing run
Resetting global fix info from restart file:
  fix style: nvt, fix ID: 1
Generated 0 of 1 mixed pair_coeff terms from geometric mixing rule
All restart file global fix info was re-assigned
Neighbor list info ...
  update: every = 1 steps, delay = 25 steps, check = yes
  max neighbors/atom: 2000, page size: 100000
  master list distance cutoff = 3
  ghost atom cutoff = 3
  binsize = 1.5, bins = 5 5 5
  1 neighbor lists, perpetual/occasional/extra = 1 0 0
  (1) pair lj/cut, perpetual
      attributes: half, newton on
      pair build: half/bin/atomonly/newton
      stencil: half/bin/3d
      bin: standard
Setting up Verlet run ...
  Unit style    : lj
  Current step  : 0
  Time step     : 0.003
Per MPI rank memory allocation (min/avg/max) = 3.961 | 3.961 | 3.961 Mbytes
   Step          Temp          E_pair         E_mol          TotEng         Press     
         0   0.475         -6.9043025      0             -6.1937817      3.7712346    
    300000   0.42500018    -6.9214813      0             -6.2857518      3.4269373    
    600000   0.48918434    -6.9558306      0             -6.2240923      3.386142     
    900000   0.46908507    -6.9978521      0             -6.296179       3.2438288    
   1200000   0.47937046    -6.9631775      0             -6.2461192      3.37872      
   1500000   0.45127088    -6.93514        0             -6.260114       3.5929062    
   1800000   0.49296271    -6.8895537      0             -6.1521637      3.9022661    
   2100000   0.47521975    -6.9663882      0             -6.2555387      3.4134688    
   2400000   0.46759419    -6.9201154      0             -6.2206724      3.6294101    
   2700000   0.48822818    -6.9400839      0             -6.2097759      3.5460948    
   3000000   0.46724378    -6.9463723      0             -6.2474535      3.4298738    
   3300000   0.50208077    -6.9793036      0             -6.2282744      3.4287934    
   3600000   0.45526276    -6.9250045      0             -6.2440073      3.6502271    
   3900000   0.4799276     -6.9797071      0             -6.2618154      3.3073366    
   4200000   0.4825373     -6.9387225      0             -6.2169271      3.5997757    
   4500000   0.48254859    -6.934292       0             -6.2124797      3.604349     
   4800000   0.47449322    -6.9760913      0             -6.2663285      3.3200266    
   5100000   0.43450507    -6.9852458      0             -6.3352986      3.2967332    
   5400000   0.49444723    -6.9976926      0             -6.258082       3.1575953    
   5700000   0.47126362    -6.9742005      0             -6.2692687      3.2197785    
   6000000   0.45620835    -6.9947856      0             -6.312374       3.1305676    
   6300000   0.51278222    -6.9622179      0             -6.1951812      3.4053553    
   6600000   0.48279235    -6.9596172      0             -6.2374403      3.4016006    
   6900000   0.45457229    -7.0235553      0             -6.3435909      3.0617036    
   7200000   0.48932103    -6.9833075      0             -6.2513648      3.1775826    
   7500000   0.476288      -6.9867771      0             -6.2743296      3.303983     
   7800000   0.44871578    -7.0115134      0             -6.3403094      3.0932724    
   8100000   0.50029365    -6.9463395      0             -6.1979836      3.5350882    
   8400000   0.48729089    -6.9722359      0             -6.24333        3.2886779    
   8700000   0.45709769    -6.9598941      0             -6.2761521      3.5051916    
   9000000   0.47443933    -6.921924       0             -6.2122419      3.6200069    
   9300000   0.47373851    -6.9449617      0             -6.2363278      3.4790226    
   9600000   0.46242477    -6.9751072      0             -6.2833968      3.3297912    
   9900000   0.47420821    -6.9519207      0             -6.2425843      3.4490996    
  10200000   0.46345227    -6.9444959      0             -6.2512485      3.4477811    
  10500000   0.49080851    -6.9556902      0             -6.2215225      3.5571824    
  10800000   0.46707862    -6.9244394      0             -6.2257676      3.6146026    
  11100000   0.45558926    -6.9330614      0             -6.2515758      3.4728188    
  11400000   0.46140022    -6.9887025      0             -6.2985247      3.2280392    
  11700000   0.44732058    -6.9219268      0             -6.2528098      3.8295606    
  12000000   0.45974153    -6.894152       0             -6.2064553      3.7130695    
  12300000   0.47831493    -6.9830879      0             -6.2676085      3.4102765    
  12600000   0.47562868    -6.9585144      0             -6.2470532      3.4794281    
  12900000   0.49720304    -6.9900476      0             -6.2463147      3.2872589    
  13200000   0.47657349    -6.9907352      0             -6.2778607      3.2590648    
  13500000   0.48421094    -6.9443735      0             -6.2200746      3.5551799    
  13800000   0.48639237    -6.9219529      0             -6.1943909      3.495423     
  14100000   0.47439479    -6.8975561      0             -6.1879406      3.8099526    
  14400000   0.50482821    -6.9746305      0             -6.2194917      3.3772771    
  14700000   0.43425574    -6.9888393      0             -6.339265       3.1082785    
  15000000   0.47029417    -6.9721107      0             -6.268629       3.3704888    
  15300000   0.44016716    -6.9486588      0             -6.2902421      3.327847     
  15600000   0.47752347    -6.9428147      0             -6.2285192      3.4786077    
  15900000   0.49179153    -6.9538477      0             -6.2182095      3.3864335    
  16200000   0.50055404    -6.9094458      0             -6.1607004      3.8202972    
  16500000   0.46722722    -7.0028414      0             -6.3039473      3.059919     
  16800000   0.487127      -6.9593451      0             -6.2306843      3.4815406    
  17100000   0.4438773     -6.9504238      0             -6.2864573      3.3794262    
  17400000   0.47367189    -6.9333075      0             -6.2247733      3.6346602    
  17700000   0.48195918    -6.9540668      0             -6.2331362      3.6703962    
  18000000   0.47125202    -6.9645425      0             -6.259628       3.3377903    
  18300000   0.51097094    -7.0125049      0             -6.2481776      3.0507085    
  18600000   0.46992147    -7.0319497      0             -6.3290255      2.9150287    
  18900000   0.48705757    -6.9617146      0             -6.2331577      3.4618097    
  19200000   0.46553565    -6.9545537      0             -6.2581899      3.494584     
  19500000   0.48417151    -6.9761592      0             -6.2519193      3.3790644    
  19800000   0.48013683    -6.9491642      0             -6.2309595      3.4553626    
  20100000   0.47101944    -6.993147       0             -6.2885804      3.2220177    
  20400000   0.49375583    -6.9932145      0             -6.2546381      3.3235175    
  20700000   0.44093967    -6.9572304      0             -6.2976581      3.4288774    
  21000000   0.47898496    -6.9316594      0             -6.2151777      3.6258577    
  21300000   0.4833018     -6.9224706      0             -6.1995317      3.6734431    
  21600000   0.46715969    -7.0021858      0             -6.3033927      3.0975355    
  21900000   0.47384321    -6.8570738      0             -6.1482833      4.0183238    
  22200000   0.46789853    -6.9754685      0             -6.2755703      3.2960186    
  22500000   0.4956496     -6.8916027      0             -6.1501935      3.8192333    
  22800000   0.48628482    -6.9008869      0             -6.1734859      3.8245189    
  23100000   0.48321705    -6.9117109      0             -6.1888988      3.8119625    
  23400000   0.4258977     -6.9996836      0             -6.3626116      2.9474359    
  23700000   0.47240086    -6.9405761      0             -6.2339432      3.492533     
  24000000   0.4633537     -6.9962559      0             -6.303156       3.1142732    
  24300000   0.49667599    -6.9439703      0             -6.2010258      3.5836587    
  24600000   0.52579602    -6.945503       0             -6.1589998      3.5633849    
  24900000   0.45982452    -6.9649275      0             -6.2771066      3.2359458    
  25200000   0.50730713    -6.9911327      0             -6.2322858      3.1701557    
  25500000   0.48537106    -6.9718865      0             -6.2458523      3.4533338    
  25800000   0.45073591    -6.9439217      0             -6.2696959      3.4337475    
  26100000   0.4846466     -7.0155105      0             -6.29056        3.1241308    
  26400000   0.43071515    -6.9317957      0             -6.2875176      3.5432322    
  26700000   0.47908336    -6.9633796      0             -6.2467507      3.4002557    
  27000000   0.43878263    -6.933574       0             -6.2772283      3.5943234    
  27300000   0.45459921    -6.9658933      0             -6.2858887      3.4118735    
  27600000   0.47582795    -7.0167384      0             -6.3049791      3.0896461    
  27900000   0.48121485    -6.9320627      0             -6.2122455      3.5048259    
  28200000   0.45245587    -6.9916268      0             -6.3148282      3.2146326    
  28500000   0.45660137    -6.9058182      0             -6.2228187      3.6047009    
  28800000   0.4892348     -6.8921719      0             -6.1603582      3.9381392    
  29100000   0.45805139    -6.9551424      0             -6.2699739      3.4163766    
  29400000   0.46693732    -6.9070715      0             -6.2086111      3.9375783    
  29700000   0.46503424    -6.9210934      0             -6.2254797      3.8203867    
  30000000   0.48144846    -6.997067       0             -6.2769003      3.1975804    
Loop time of 1422.2 on 48 procs for 30000000 steps with 360 atoms

Performance: 5467566.870 tau/day, 21094.008 timesteps/s, 7.594 Matom-step/s
99.6% CPU use with 48 MPI tasks x 1 OpenMP threads

MPI task timing breakdown:
Section |  min time  |  avg time  |  max time  |%varavg| %total
---------------------------------------------------------------
Pair    | 91.07      | 96.323     | 105.34     |  25.3 |  6.77
Neigh   | 13.805     | 14.269     | 14.925     |   7.2 |  1.00
Comm    | 1053.4     | 1084       | 1122.4     |  55.5 | 76.22
Output  | 0.030277   | 0.030445   | 0.037482   |   0.6 |  0.00
Modify  | 139.59     | 176.96     | 205.81     | 141.0 | 12.44
Other   |            | 50.61      |            |       |  3.56

Nlocal:            7.5 ave          10 max           5 min
Histogram: 3 0 9 0 15 0 8 0 8 5
Nghost:        570.125 ave         587 max         557 min
Histogram: 7 1 7 6 5 8 3 5 3 3
Neighs:        432.958 ave         563 max         273 min
Histogram: 2 1 3 10 6 8 3 6 3 6

Total # of neighbors = 20782
Ave neighs/atom = 57.727778
Neighbor list builds = 769697
Dangerous builds = 993
Total wall time: 0:23:43
cooling down to T_0.45
LAMMPS (15 Sep 2022)
OMP_NUM_THREADS environment is not set. Defaulting to 1 thread. (src/comm.cpp:98)
  using 1 OpenMP thread(s) per MPI task
Reading restart file ...
  restart file = 15 Sep 2022, LAMMPS = 15 Sep 2022
  restoring atom style atomic from restart
  orthogonal box = (0 0 0) to (6.6943295 6.6943295 6.6943295)
  3 by 4 by 4 MPI processor grid
  restoring pair style lj/cut from restart
  360 atoms
  read_restart CPU = 0.029 seconds
Setting up annealing run
Resetting global fix info from restart file:
  fix style: nvt, fix ID: 1
Generated 0 of 1 mixed pair_coeff terms from geometric mixing rule
All restart file global fix info was re-assigned
Neighbor list info ...
  update: every = 1 steps, delay = 25 steps, check = yes
  max neighbors/atom: 2000, page size: 100000
  master list distance cutoff = 3
  ghost atom cutoff = 3
  binsize = 1.5, bins = 5 5 5
  1 neighbor lists, perpetual/occasional/extra = 1 0 0
  (1) pair lj/cut, perpetual
      attributes: half, newton on
      pair build: half/bin/atomonly/newton
      stencil: half/bin/3d
      bin: standard
Setting up Verlet run ...
  Unit style    : lj
  Current step  : 0
  Time step     : 0.003
Per MPI rank memory allocation (min/avg/max) = 3.961 | 3.961 | 3.961 Mbytes
   Step          Temp          E_pair         E_mol          TotEng         Press     
         0   0.45          -6.997067       0             -6.323942       3.1599471    
   1000000   0.45640914    -7.0072745      0             -6.3245625      3.06605      
   2000000   0.43864841    -6.9992453      0             -6.3431004      3.2150282    
   3000000   0.43251407    -7.0470732      0             -6.4001042      2.8738939    
   4000000   0.50917331    -7.007124       0             -6.2454856      3.0969927    
   5000000   0.43269638    -6.9909155      0             -6.3436738      3.1345863    
   6000000   0.43183508    -7.0034607      0             -6.3575073      3.0601114    
   7000000   0.45894034    -7.0107212      0             -6.3242229      3.0731868    
   8000000   0.46488538    -7.0503572      0             -6.3549662      2.9356719    
   9000000   0.46698612    -6.9076876      0             -6.2091541      3.8172254    
  10000000   0.4426573     -7.00063        0             -6.3384885      3.0669071    
  11000000   0.41530122    -7.0093365      0             -6.3881151      3.043728     
  12000000   0.43338527    -6.9462263      0             -6.2979541      3.4774872    
  13000000   0.46251896    -6.9888297      0             -6.2969784      3.1272221    
  14000000   0.4807853     -7.0099652      0             -6.2907905      2.9827331    
  15000000   0.44376581    -7.0363072      0             -6.3725075      2.8663367    
  16000000   0.44260115    -7.0425834      0             -6.3805259      2.9815151    
  17000000   0.44808031    -6.9765005      0             -6.306247       3.2686199    
  18000000   0.43864559    -7.0391212      0             -6.3829805      2.8828235    
  19000000   0.48824994    -7.0083678      0             -6.2780273      3.1947532    
  20000000   0.4552811     -6.9961094      0             -6.3150848      3.2593031    
  21000000   0.49028929    -7.034409       0             -6.301018       3.038383     
  22000000   0.41799044    -6.9463304      0             -6.3210864      3.3835523    
  23000000   0.433556      -7.021809       0             -6.3732815      3.0568218    
  24000000   0.43661423    -6.9598055      0             -6.3067034      3.2577462    
  25000000   0.46639199    -6.9535804      0             -6.2559357      3.3197901    
  26000000   0.4613838     -7.0313582      0             -6.3412049      2.8656457    
  27000000   0.47684638    -7.0058046      0             -6.2925219      3.0292705    
  28000000   0.4279255     -6.9942809      0             -6.3541757      3.2239047    
  29000000   0.42764233    -6.9448864      0             -6.3052047      3.3448257    
  30000000   0.45052351    -6.9644328      0             -6.2905247      3.1300384    
  31000000   0.4673365     -7.0221931      0             -6.3231356      2.958726     
  32000000   0.46652269    -7.0818243      0             -6.3839841      2.6695143    
  33000000   0.48106928    -6.9826948      0             -6.2630954      3.0792406    
  34000000   0.45747935    -7.0187234      0             -6.3344106      3.0720304    
  35000000   0.45859523    -7.0707344      0             -6.3847524      2.6606157    
  36000000   0.44253285    -7.0014345      0             -6.3394791      2.9009189    
  37000000   0.44908837    -6.9960242      0             -6.3242628      3.0727801    
  38000000   0.42869905    -7.0417161      0             -6.4004537      2.8460542    
  39000000   0.46541145    -7.1004406      0             -6.4042626      2.3847761    
  40000000   0.42293895    -7.0665154      0             -6.4338692      2.6035192    
  41000000   0.45222575    -7.072864       0             -6.3964096      2.6597176    
  42000000   0.42396117    -7.0556358      0             -6.4214606      2.7328875    
  43000000   0.45517402    -7.0486076      0             -6.3677431      2.9049248    
  44000000   0.46953418    -7.1003737      0             -6.3980288      2.5336135    
  45000000   0.46409781    -7.0554157      0             -6.3612027      2.6857032    
  46000000   0.4600493     -7.0239385      0             -6.3357814      3.1343755    
  47000000   0.42875135    -6.9949289      0             -6.3535883      3.1564779    
  48000000   0.4141567     -6.9623585      0             -6.3428491      3.2637951    
  49000000   0.43636878    -7.0476242      0             -6.3948892      2.7928309    
  50000000   0.41573227    -7.0410795      0             -6.4192134      2.7626668    
  51000000   0.440712      -7.0319832      0             -6.3727515      2.9360825    
  52000000   0.47122699    -7.0347556      0             -6.3298786      3.0769336    
  53000000   0.47018713    -6.9304301      0             -6.2271085      3.6354356    
  54000000   0.43357372    -6.9618175      0             -6.3132635      3.2836983    
  55000000   0.45130378    -7.0423575      0             -6.3672823      2.7861872    
  56000000   0.43685999    -6.9346484      0             -6.2811786      3.4497538    
  57000000   0.43106034    -7.0138433      0             -6.3690488      2.9473294    
  58000000   0.46468985    -6.9968198      0             -6.3017212      3.0978942    
  59000000   0.42124078    -6.9883708      0             -6.3582648      3.2668349    
  60000000   0.43248497    -7.0286571      0             -6.3817317      2.8544847    
  61000000   0.44655682    -7.0100594      0             -6.3420848      3.0610438    
  62000000   0.43521132    -6.9585936      0             -6.30759        3.4003442    
  63000000   0.43083884    -6.9930658      0             -6.3486027      3.1705601    
  64000000   0.42256263    -6.9811863      0             -6.349103       3.2608603    
  65000000   0.45357776    -6.9944212      0             -6.3159445      3.1887713    
  66000000   0.4343151     -6.9822047      0             -6.3325417      3.2050605    
  67000000   0.43787461    -6.9583099      0             -6.3033224      3.2955082    
  68000000   0.46190395    -7.0116006      0             -6.3206693      3.0054579    
  69000000   0.46541054    -6.9593201      0             -6.2631435      3.4182755    
  70000000   0.45239959    -6.9970757      0             -6.3203613      3.1272097    
  71000000   0.46009824    -6.9967185      0             -6.3084882      3.2187911    
  72000000   0.46309015    -7.0730316      0             -6.3803259      2.704395     
  73000000   0.44401109    -7.03375        0             -6.3695835      2.8358477    
  74000000   0.44896499    -6.9977138      0             -6.326137       3.2613616    
  75000000   0.42736926    -7.0329108      0             -6.3936376      2.7387832    
  76000000   0.44161779    -7.0052157      0             -6.3446291      3.1858326    
  77000000   0.45544178    -6.9692829      0             -6.2880179      3.4294707    
  78000000   0.44047343    -6.96061        0             -6.3017352      3.3799344    
  79000000   0.4710049     -7.000979       0             -6.2964342      3.0651003    
  80000000   0.44968515    -6.995062       0             -6.322408       3.1791084    
  81000000   0.43434501    -7.0407242      0             -6.3910165      2.8726843    
  82000000   0.47351392    -6.9266281      0             -6.2183302      3.6357601    
  83000000   0.45261507    -7.0095532      0             -6.3325165      3.2330745    
  84000000   0.4551222     -7.0325847      0             -6.3517978      3.0278958    
  85000000   0.48031808    -6.9997335      0             -6.2812577      3.0968559    
  86000000   0.48321398    -7.0220304      0             -6.2992228      2.8535591    
  87000000   0.43350614    -6.9744856      0             -6.3260326      3.3082508    
  88000000   0.47118846    -7.0126261      0             -6.3078067      2.9292448    
  89000000   0.44563421    -7.0295998      0             -6.3630053      2.8796305    
  90000000   0.45966543    -7.0504225      0             -6.3628396      2.8612275    
  91000000   0.45541159    -6.9694314      0             -6.2882116      3.3094952    
  92000000   0.45820555    -6.9772394      0             -6.2918402      3.3092602    
  93000000   0.42639867    -7.0521984      0             -6.4143771      2.7688024    
  94000000   0.41067838    -7.0700916      0             -6.4557852      2.6229241    
  95000000   0.42220561    -7.0322829      0             -6.4007337      2.9191391    
  96000000   0.46453103    -7.0375052      0             -6.3426442      2.9894791    
  97000000   0.47077761    -6.9686945      0             -6.2644896      3.2842372    
  98000000   0.45096036    -6.9702809      0             -6.2957193      3.2694866    
  99000000   0.46257443    -7.0260125      0             -6.3340782      3.0021531    
 100000000   0.44044848    -7.0109999      0             -6.3521624      3.1761799    
Loop time of 4778.8 on 48 procs for 100000000 steps with 360 atoms

Performance: 5423957.096 tau/day, 20925.760 timesteps/s, 7.533 Matom-step/s
99.6% CPU use with 48 MPI tasks x 1 OpenMP threads

MPI task timing breakdown:
Section |  min time  |  avg time  |  max time  |%varavg| %total
---------------------------------------------------------------
Pair    | 293.4      | 319.46     | 336.16     |  48.1 |  6.68
Neigh   | 43.692     | 46.017     | 48.308     |  16.3 |  0.96
Comm    | 3540.3     | 3638.6     | 3773.4     | 103.4 | 76.14
Output  | 0.023351   | 0.023543   | 0.030407   |   0.7 |  0.00
Modify  | 461.96     | 595.26     | 698.89     | 259.4 | 12.46
Other   |            | 179.4      |            |       |  3.75

Nlocal:            7.5 ave          11 max           5 min
Histogram: 4 7 0 12 0 15 7 0 2 1
Nghost:        571.958 ave         587 max         559 min
Histogram: 4 1 10 6 3 9 5 7 1 2
Neighs:        434.375 ave         648 max         246 min
Histogram: 3 4 2 5 13 11 5 0 4 1

Total # of neighbors = 20850
Ave neighs/atom = 57.916667
Neighbor list builds = 2473083
Dangerous builds = 1532
Total wall time: 1:19:39
