ITEM: TIMESTEP
0
ITEM: NUMBER OF ATOMS
360
ITEM: BOX BOUNDS pp pp pp
0.0000000000000000e+00 6.6943295008216896e+00
0.0000000000000000e+00 6.6943295008216896e+00
0.0000000000000000e+00 6.6943295008216896e+00
ITEM: ATOMS id type xs ys zs
55 1 0.183213 0.217795 0.202045
203 1 0.0264911 0.213855 0.0933869
211 1 0.111245 0.0892902 0.138021
179 1 0.317113 0.0772812 0.186251
327 2 0.151606 0.186335 0.0730291
219 1 0.216568 0.0570536 0.02258
74 1 0.297801 0.195457 0.0959525
276 1 0.0315913 0.0847875 0.00535007
315 2 0.0510027 0.214403 0.21355
321 2 0.198128 0.0884538 0.231066
332 2 0.327914 0.0601418 0.437033
279 1 0.243902 0.12677 0.368967
99 1 0.0574287 0.0836932 0.455039
346 2 0.174286 0.194296 0.474804
237 1 0.0956471 0.1182 0.301594
76 1 0.326704 0.239516 0.256099
173 1 0.144189 0.248696 0.367169
91 1 0.0271558 0.237232 0.462452
339 2 0.19009 0.0533409 0.641631
178 1 0.101179 0.105441 0.736017
88 1 0.119307 0.145857 0.581489
146 1 0.259983 0.165257 0.660733
7 1 0.301037 0.163091 0.525521
119 1 0.320503 0.0379874 0.624486
171 1 0.207063 0.0383729 0.501256
293 2 0.253552 0.061997 0.889116
103 1 0.138406 0.0884519 0.898125
299 2 0.135575 0.209941 0.849969
50 1 0.270387 0.18278 0.817272
177 1 0.199226 0.212985 0.957983
241 1 0.2386 0.0485766 0.768308
151 1 0.0443067 0.230115 0.937962
8 1 0.00421861 0.240065 0.753356
272 1 0.0444461 0.437939 0.140989
268 1 0.247715 0.361642 0.18417
134 1 0.132677 0.325847 0.0871688
228 1 0.182335 0.483324 0.0665345
25 1 0.080212 0.335975 0.249073
310 2 0.025537 0.449477 0.267658
182 1 0.26657 0.389882 0.328871
79 1 0.299121 0.262271 0.404157
14 1 0.117825 0.429093 0.36598
33 1 0.164347 0.328303 0.486017
80 1 0.0179302 0.422205 0.493749
266 1 0.207089 0.385078 0.647024
307 2 0.216633 0.254086 0.57988
311 2 0.0443306 0.349047 0.712453
348 2 0.129871 0.462746 0.541193
53 1 0.0585744 0.305249 0.598487
166 1 0.156415 0.266532 0.731258
62 1 0.019633 0.456499 0.653232
102 1 0.330657 0.317297 0.56024
11 1 0.324339 0.299352 0.723665
49 1 0.24984 0.461134 0.501983
160 1 0.13359 0.454078 0.755057
54 1 0.302326 0.450627 0.770282
122 1 0.0685199 0.345197 0.849726
210 1 0.2251 0.344145 0.84998
334 2 0.154261 0.347394 0.953669
324 2 0.313013 0.257755 0.913421
313 2 0.108078 0.470578 0.88198
46 1 0.0507557 0.419503 0.978655
172 1 0.224151 0.498864 0.903054
107 1 0.277786 0.355841 0.991329
185 1 0.163448 0.671672 0.0231568
9 1 0.238851 0.518078 0.202942
250 1 0.297026 0.578098 0.0196835
128 1 0.100359 0.595163 0.143197
159 1 0.0712775 0.708192 0.245673
152 1 0.22336 0.667622 0.239269
354 2 0.228167 0.612335 0.117723
136 1 0.295319 0.724892 0.0997312
238 1 0.241385 0.55591 0.372031
217 1 0.158069 0.688904 0.381858
100 1 0.0906097 0.555202 0.459368
245 1 0.110408 0.56819 0.291505
43 1 0.316989 0.711293 0.383476
194 1 0.0192065 0.684278 0.523542
83 1 0.203188 0.637559 0.51734
24 1 0.134482 0.552757 0.635882
212 1 0.290622 0.549843 0.640826
231 1 0.0767013 0.704311 0.688202
32 1 0.229315 0.721249 0.674358
351 2 0.0126487 0.552477 0.556433
22 1 0.0317821 0.704547 0.941455
197 1 0.0694656 0.597999 0.827856
214 1 0.220935 0.59207 0.775956
349 2 0.171665 0.612251 0.909851
2 1 0.291007 0.680381 0.895983
61 1 0.0565652 0.564937 0.972815
333 2 0.32874 0.55959 0.839499
117 1 0.169418 0.731003 0.810713
56 1 0.0416704 0.981481 0.237664
101 1 0.122148 0.941376 0.0816545
254 1 0.290142 0.835104 0.213855
180 1 0.254747 0.873359 0.0572679
258 1 0.138242 0.781767 0.120101
336 2 0.0195508 0.836999 0.143357
255 1 0.201253 0.967795 0.207115
316 2 0.296827 0.978666 0.103958
265 1 0.00436363 0.837421 0.0130937
114 1 0.298201 0.982246 0.336424
252 1 0.222824 0.857782 0.403021
318 2 0.211949 0.779946 0.307952
261 1 0.118979 0.851581 0.260091
343 2 0.0309562 0.908529 0.35867
192 1 0.0422163 0.788388 0.395804
6 1 0.0676233 0.924986 0.473312
133 1 0.144549 0.993778 0.363243
297 2 0.234845 0.830114 0.743385
129 1 0.316039 0.930608 0.722872
220 1 0.119776 0.844415 0.686185
222 1 0.207637 0.922958 0.599013
64 1 0.289754 0.770315 0.531691
92 1 0.132064 0.784455 0.553284
301 2 0.317463 0.879898 0.605181
306 2 0.00810255 0.886773 0.702667
18 1 0.0777855 0.997978 0.617757
262 1 0.323476 0.949617 0.932542
3 1 0.137176 0.821438 0.970221
82 1 0.0644409 0.967824 0.776454
323 2 0.267109 0.800281 0.937632
224 1 0.0255448 0.799345 0.816983
286 1 0.0604071 0.955335 0.93247
81 1 0.185074 0.907027 0.841363
317 2 0.183156 0.9506 0.964086
187 1 0.445001 0.120167 0.0727444
113 1 0.466179 0.106574 0.229428
358 2 0.474126 0.227325 0.1656
63 1 0.594833 0.157393 0.192528
355 2 0.593817 0.128858 0.0631053
230 1 0.566174 0.0150703 0.00326629
294 2 0.469786 0.240525 0.321226
143 1 0.563921 0.162564 0.347375
118 1 0.644622 0.053602 0.296178
126 1 0.58077 0.0440889 0.450208
246 1 0.411661 0.132817 0.366617
47 1 0.414328 0.18692 0.622838
140 1 0.481251 0.0561509 0.67064
302 2 0.354755 0.120175 0.734574
59 1 0.557144 0.159843 0.55433
326 2 0.522303 0.00149386 0.553641
296 2 0.594176 0.0562667 0.727206
131 1 0.580586 0.174822 0.72196
244 1 0.665725 0.08366 0.626697
48 1 0.43412 0.0687384 0.502556
223 1 0.543611 0.174298 0.947753
233 1 0.383501 0.0433197 0.824872
44 1 0.548795 0.0640439 0.847357
352 2 0.4612 0.068774 0.927765
234 1 0.447199 0.177973 0.810342
70 1 0.341695 0.133356 0.946345
337 2 0.552902 0.248859 0.830509
147 1 0.540508 0.31249 0.223311
161 1 0.478067 0.480451 0.204688
308 2 0.349535 0.447601 0.239761
170 1 0.556106 0.411831 0.0709432
329 2 0.653589 0.289979 0.149418
227 1 0.409193 0.326733 0.134287
38 1 0.551771 0.261435 0.0794723
30 1 0.351713 0.457293 0.104823
93 1 0.418543 0.361762 0.301981
34 1 0.52572 0.473712 0.392976
125 1 0.40751 0.41995 0.456434
309 2 0.514564 0.341547 0.386746
248 1 0.639767 0.341508 0.317081
319 2 0.554552 0.42312 0.278966
288 1 0.645195 0.425168 0.468461
120 1 0.607879 0.277682 0.450674
58 1 0.445856 0.256868 0.455689
26 1 0.502889 0.350527 0.571868
108 1 0.403632 0.425269 0.653118
335 2 0.524296 0.408745 0.683933
284 1 0.480281 0.300803 0.730771
15 1 0.623639 0.45261 0.613703
138 1 0.628253 0.336369 0.737708
104 1 0.642324 0.280117 0.602093
198 1 0.537392 0.337598 0.934858
209 1 0.402882 0.342922 0.865985
123 1 0.369442 0.473836 0.927533
353 2 0.548101 0.390981 0.82614
149 1 0.538414 0.491223 0.909746
98 1 0.444805 0.474383 0.793619
242 1 0.594859 0.496357 0.762401
290 2 0.444743 0.392814 0.99422
191 1 0.414741 0.251752 0.996913
168 1 0.358224 0.599716 0.164679
340 2 0.402908 0.688125 0.006418
139 1 0.459873 0.561753 0.0452275
196 1 0.593193 0.564648 0.119999
167 1 0.596034 0.720374 0.216299
341 2 0.479864 0.60884 0.178286
360 2 0.355532 0.720923 0.217458
195 1 0.445958 0.719379 0.1314
135 1 0.551206 0.70565 0.00738826
5 1 0.61808 0.730082 0.478557
338 2 0.588035 0.674181 0.346383
207 1 0.570549 0.569601 0.280224
287 1 0.446046 0.669128 0.284408
67 1 0.485699 0.625495 0.428214
78 1 0.392742 0.532794 0.322929
251 1 0.652436 0.591504 0.408594
186 1 0.358056 0.579081 0.467766
257 1 0.482648 0.54927 0.656402
303 2 0.476176 0.69453 0.687842
95 1 0.594482 0.674794 0.635321
215 1 0.401355 0.666584 0.591858
345 2 0.512441 0.683007 0.541519
110 1 0.567738 0.560486 0.528244
325 2 0.661611 0.563811 0.654345
57 1 0.630119 0.617788 0.909507
193 1 0.52771 0.627604 0.7805
148 1 0.373959 0.65643 0.762516
269 1 0.436159 0.624684 0.906569
320 2 0.605651 0.719484 0.840101
359 2 0.665731 0.736354 0.971729
127 1 0.633839 0.791095 0.0823406
305 2 0.633513 0.91751 0.0740519
132 1 0.512657 0.86294 0.0459211
183 1 0.52514 0.855405 0.224568
300 2 0.38459 0.844594 0.126138
68 1 0.391969 0.955582 0.207004
29 1 0.410127 0.979336 0.0507441
163 1 0.666486 0.915337 0.204143
277 1 0.536435 0.989968 0.148929
10 1 0.537896 0.790401 0.355989
174 1 0.394012 0.84968 0.325038
298 2 0.631714 0.814861 0.282625
226 1 0.49559 0.908029 0.462506
176 1 0.49176 0.987936 0.32443
96 1 0.657158 0.927427 0.377681
105 1 0.43023 0.767865 0.474733
164 1 0.33356 0.935943 0.488973
314 2 0.641095 0.859074 0.488255
145 1 0.395861 0.792761 0.675545
69 1 0.432716 0.931086 0.606423
40 1 0.565407 0.793284 0.728246
28 1 0.524182 0.8129 0.588095
106 1 0.597433 0.947006 0.644404
112 1 0.384173 0.815488 0.99148
94 1 0.609973 0.925543 0.7953
39 1 0.611194 0.836243 0.915435
35 1 0.479636 0.764162 0.852921
42 1 0.478766 0.928679 0.909268
229 1 0.468134 0.910324 0.750777
204 1 0.336991 0.811876 0.833783
328 2 0.652457 0.99729 0.878944
275 1 0.842027 0.0548692 0.0719021
253 1 0.68099 0.047504 0.12337
199 1 0.857152 0.206705 0.124823
283 1 0.797413 0.0816645 0.221536
73 1 0.96844 0.115615 0.212071
89 1 0.700893 0.195409 0.0847775
27 1 0.718062 0.22706 0.233032
85 1 0.885034 0.148234 0.469815
201 1 0.958386 0.200704 0.339418
111 1 0.698612 0.144839 0.479729
60 1 0.782215 0.154285 0.3511
285 1 0.943275 0.0290309 0.347737
357 2 0.862026 0.194164 0.262537
36 1 0.803532 0.013301 0.404541
19 1 0.775249 0.207999 0.615329
280 1 0.962642 0.138516 0.614304
150 1 0.815279 0.0717231 0.579861
86 1 0.857963 0.0715723 0.731665
342 2 0.879027 0.236504 0.696341
295 2 0.699934 0.217547 0.746414
347 2 0.984937 0.061925 0.710601
52 1 0.697714 0.0841882 0.788742
75 1 0.880995 0.188918 0.823532
350 2 0.768152 0.171316 0.870893
181 1 0.911803 0.158802 0.980667
205 1 0.688098 0.118023 0.947586
84 1 0.820024 0.0517898 0.895316
202 1 0.980895 0.0809857 0.857214
331 2 0.938385 0.0141385 0.950277
12 1 0.78837 0.335727 0.154759
291 2 0.897355 0.421646 0.129852
208 1 0.682458 0.34147 0.0259998
200 1 0.941695 0.334511 0.0344056
281 1 0.936493 0.313288 0.201866
232 1 0.670674 0.496952 0.00194762
260 1 0.670082 0.43146 0.190243
184 1 0.788616 0.499669 0.109307
249 1 0.978372 0.355821 0.364571
77 1 0.847708 0.43119 0.440779
292 2 0.903421 0.278815 0.427878
31 1 0.732227 0.480226 0.337343
13 1 0.81398 0.30986 0.31326
90 1 0.759979 0.311942 0.477758
45 1 0.879431 0.443624 0.256004
356 2 0.702021 0.250706 0.369649
239 1 0.773785 0.361626 0.643546
116 1 0.882006 0.461045 0.589195
243 1 0.737831 0.472648 0.716709
154 1 0.920656 0.366931 0.727583
278 1 0.895006 0.305764 0.55302
322 2 0.943347 0.480863 0.952731
270 1 0.919466 0.3369 0.882969
37 1 0.782403 0.316279 0.802302
71 1 0.846206 0.457971 0.848391
235 1 0.998996 0.471994 0.825516
267 1 0.679863 0.403494 0.870987
273 1 0.799936 0.259899 0.968896
175 1 0.667475 0.250268 0.874076
213 1 0.818577 0.407592 0.991513
289 2 0.944899 0.687348 0.225908
236 1 0.70738 0.657903 0.0751761
66 1 0.849663 0.648665 0.168272
156 1 0.720065 0.592637 0.228346
247 1 0.935958 0.53496 0.0604992
189 1 0.97487 0.559167 0.220758
162 1 0.998628 0.704598 0.104078
51 1 0.86858 0.693819 0.0122936
130 1 0.970717 0.506187 0.377335
274 1 0.821808 0.592898 0.368164
141 1 0.702831 0.718167 0.333892
109 1 0.855461 0.732393 0.307532
17 1 0.883423 0.74367 0.453905
221 1 0.760321 0.660655 0.488791
240 1 0.978249 0.658317 0.361743
264 1 0.905228 0.593845 0.493963
97 1 0.808368 0.592689 0.631284
216 1 0.754545 0.517423 0.524128
330 2 0.730687 0.689649 0.61149
190 1 0.956611 0.595724 0.665741
137 1 0.852107 0.736025 0.615117
344 2 0.861332 0.503875 0.70897
304 2 0.802034 0.707571 0.727965
312 2 0.709163 0.54007 0.837376
142 1 0.915376 0.707559 0.781087
206 1 0.778806 0.580363 0.946968
124 1 0.680474 0.655779 0.752243
218 1 0.827116 0.592323 0.784163
188 1 0.762035 0.716223 0.873105
165 1 0.928388 0.589414 0.908667
121 1 0.963244 0.974381 0.109723
259 1 0.785067 0.920325 0.109595
20 1 0.8821 0.799308 0.142944
41 1 0.737569 0.765073 0.186142
4 1 0.762677 0.810943 0.0107817
144 1 0.884616 0.953903 0.233192
16 1 0.971891 0.833921 0.261831
282 1 0.756164 0.83545 0.457227
263 1 0.90316 0.878092 0.398656
169 1 0.776379 0.857416 0.311695
21 1 0.926165 0.963127 0.651306
271 1 0.689957 0.805133 0.592925
225 1 0.839285 0.896775 0.55443
153 1 0.694026 0.979347 0.524846
72 1 0.977628 0.825282 0.565575
158 1 0.758771 0.948203 0.68337
155 1 0.872461 0.83985 0.725426
87 1 0.717656 0.815064 0.744768
115 1 0.941279 0.997813 0.507369
157 1 0.893024 0.785873 0.893831
256 1 0.918119 0.93972 0.828311
1 1 0.875334 0.915028 0.986034
23 1 0.760072 0.918246 0.853709
65 1 0.713361 0.9656 0.992172
ITEM: TIMESTEP
100000
ITEM: NUMBER OF ATOMS
360
ITEM: BOX BOUNDS pp pp pp
0.0000000000000000e+00 6.6943295008216896e+00
0.0000000000000000e+00 6.6943295008216896e+00
0.0000000000000000e+00 6.6943295008216896e+00
ITEM: ATOMS id type xs ys zs
334 2 0.108323 0.146422 0.0297803
199 1 0.0524964 0.163295 0.146878
207 1 0.313567 0.206865 0.0573666
177 1 0.206263 0.105939 0.122805
49 1 0.131605 0.248856 0.244016
55 1 0.146082 0.025473 -0.0022737
276 1 0.157829 0.25624 0.0730377
234 1 0.33017 0.0642735 0.00759319
14 1 0.14637 0.195519 0.384957
133 1 0.198073 0.0150245 0.407433
237 1 0.124257 0.0963763 0.262802
201 1 0.264934 0.143873 0.271751
285 1 0.0740952 0.0731161 0.487349
343 2 0.316781 0.010326 0.439608
178 1 0.089304 0.219501 0.53987
351 2 0.118892 0.23718 0.669872
181 1 0.150456 0.103939 0.652912
317 2 0.279365 0.0777218 0.618147
99 1 0.218217 0.129122 0.520188
140 1 0.265922 0.191984 0.663633
73 1 0.121094 0.170569 0.791596
211 1 0.0397447 0.0993697 0.906747
8 1 0.209922 0.146916 0.937943
81 1 0.26794 0.0975708 0.789549
202 1 0.120241 0.0252713 0.78603
302 2 0.318901 0.172663 0.883637
122 1 0.00872739 0.227403 0.993856
327 2 0.0573366 0.309154 0.156012
151 1 0.0470651 0.373227 0.0258588
107 1 0.184561 0.379595 0.14109
67 1 0.312435 0.469224 0.178435
134 1 0.0390904 0.432052 0.188546
74 1 0.287767 0.288731 0.215091
9 1 0.145735 0.389188 0.317403
186 1 0.314191 0.407807 0.478875
173 1 0.274691 0.290351 0.367642
171 1 0.125496 0.337816 0.458486
307 2 0.196533 0.456806 0.428646
182 1 0.301628 0.438112 0.328008
212 1 0.216519 0.340165 0.688192
325 2 0.258829 0.465113 0.733317
62 1 0.0717506 0.360341 0.631922
348 2 0.332088 0.353993 0.600512
214 1 0.177294 0.447088 0.572402
54 1 0.11562 0.469987 0.740455
102 1 0.239537 0.280406 0.540095
108 1 0.330812 0.485439 0.625
210 1 0.217433 0.405234 0.83558
46 1 0.0770558 0.450286 0.88965
33 1 0.0883206 0.321174 0.779006
70 1 0.139734 0.300033 0.924356
50 1 0.258803 0.262835 0.836049
333 2 0.275144 0.320541 0.964699
172 1 0.208914 0.432837 0.983266
324 2 0.011788 0.332586 0.903125
136 1 0.144103 0.685642 0.129619
354 2 0.218138 0.511885 0.0787906
168 1 0.282859 0.624014 0.141021
245 1 0.160754 0.536502 0.198664
268 1 0.0925974 0.511782 0.0607657
228 1 0.0106613 0.591725 0.17284
112 1 0.271369 0.744917 0.0149324
217 1 0.213826 0.703682 0.430818
43 1 0.207716 0.567895 0.35017
252 1 0.220808 0.69131 0.261041
91 1 0.104522 0.54052 0.471765
238 1 0.0575746 0.526569 0.316501
192 1 0.0567438 0.681486 0.393674
360 2 0.315086 0.573266 0.27408
291 2 0.0970146 0.637565 0.257061
110 1 0.269388 0.550016 0.488194
152 1 0.0421804 0.748997 0.252928
215 1 0.215948 0.573301 0.68304
145 1 0.145546 0.728498 0.720833
220 1 0.281856 0.698419 0.599406
82 1 0.128728 0.658266 0.571219
116 1 0.0560767 0.525024 0.614291
306 2 0.0835051 0.592434 0.727836
323 2 0.265871 0.511919 0.909019
24 1 0.190681 0.57104 0.835899
30 1 0.198469 0.605984 0.994403
262 1 0.207806 0.742692 0.870438
61 1 0.0523702 0.603802 0.911009
22 1 0.0265803 0.721941 0.81235
336 2 0.0856968 0.698586 0.995108
231 1 0.30774 0.684195 0.750526
2 1 0.329852 0.613906 0.923221
180 1 0.171303 0.821064 0.18836
68 1 0.316886 0.801575 0.157701
254 1 0.238523 0.954499 0.129335
128 1 0.0188849 0.772072 0.0793427
258 1 0.0246822 0.934321 0.0171813
36 1 0.0736894 0.990531 0.160938
346 2 0.289217 0.8962 0.224676
185 1 0.170308 0.861237 0.0289067
263 1 0.061398 0.985606 0.345982
159 1 0.123615 0.81691 0.360275
6 1 0.092501 0.917393 0.487148
7 1 0.247438 0.877107 0.430947
92 1 0.319129 0.800956 0.314284
109 1 0.0295195 0.779391 0.507934
261 1 0.189059 0.951374 0.267937
357 2 0.0665793 0.888766 0.253405
349 2 0.205612 0.834477 0.676875
53 1 0.250034 0.980117 0.696755
75 1 0.107791 0.927665 0.647813
286 1 0.178702 0.80657 0.553802
295 2 0.0767369 0.792711 0.633199
47 1 0.238662 0.974567 0.546713
241 1 0.0086798 0.839877 0.729677
311 2 0.0177709 0.968695 0.736593
222 1 0.317459 0.854943 0.599096
32 1 0.307375 0.848618 0.773778
103 1 0.250437 0.96078 0.891111
204 1 0.151327 0.874067 0.795088
117 1 0.0605168 0.817568 0.916807
299 2 0.122656 0.936771 0.919457
297 2 0.318097 0.819488 0.900002
1 1 0.0064233 0.949633 0.85745
38 1 0.65512 0.177172 0.0979091
253 1 0.619747 0.0933627 0.236342
277 1 0.511478 0.0992394 0.107649
219 1 0.353078 0.114088 0.151976
321 2 0.411756 0.231765 0.181115
93 1 0.554622 0.236515 0.210522
316 2 0.433144 0.140512 0.0117369
60 1 0.626329 0.0196675 0.402889
114 1 0.461304 0.0845015 0.252044
119 1 0.486279 0.0612725 0.43117
294 2 0.495219 0.210649 0.453133
118 1 0.573936 0.168671 0.364135
246 1 0.422097 0.227519 0.319176
146 1 0.333247 0.133335 0.413799
58 1 0.665484 0.165285 0.488203
44 1 0.544339 0.0321944 0.641228
284 1 0.541098 0.153926 0.746424
248 1 0.371864 0.153333 0.556769
69 1 0.413129 0.0888334 0.70019
104 1 0.521439 0.167292 0.576449
332 2 0.587467 0.0699285 0.521122
48 1 0.415 0.00465709 0.555506
86 1 0.646564 0.0405265 0.744565
11 1 0.393038 0.213731 0.777682
129 1 0.435738 0.104023 0.887458
179 1 0.569398 0.136489 0.974187
320 2 0.595458 0.103102 0.853619
293 2 0.517951 0.0136769 0.76335
191 1 0.560021 0.250486 0.861083
300 2 0.353789 0.0228672 0.834857
78 1 0.479455 0.453016 0.112493
232 1 0.562758 0.422543 0.235149
308 2 0.575362 0.371728 0.0692779
227 1 0.345403 0.353566 0.0776856
79 1 0.423115 0.354023 0.230289
76 1 0.494015 0.242079 0.0632426
139 1 0.653968 0.477764 0.117473
161 1 0.658362 0.327915 0.153833
125 1 0.584844 0.477922 0.387289
288 1 0.463644 0.363858 0.375788
143 1 0.557786 0.314246 0.485409
113 1 0.609415 0.315737 0.33616
88 1 0.390941 0.280139 0.472061
330 2 0.557799 0.441161 0.502061
138 1 0.514728 0.340791 0.731998
218 1 0.605339 0.42124 0.640105
15 1 0.455729 0.398755 0.571851
267 1 0.352397 0.370761 0.742065
26 1 0.422181 0.268712 0.643737
216 1 0.480676 0.502447 0.695517
239 1 0.675897 0.287673 0.592593
198 1 0.662172 0.296398 0.748186
250 1 0.470586 0.37545 0.979208
242 1 0.406764 0.251086 0.938749
149 1 0.489062 0.457937 0.846802
123 1 0.344396 0.409306 0.92219
335 2 0.585227 0.370748 0.877724
309 2 0.446128 0.335116 0.849122
243 1 0.611862 0.4557 0.962596
170 1 0.642803 0.462065 0.776831
209 1 0.633771 0.295188 0.988109
195 1 0.567617 0.692619 0.0345266
340 2 0.499202 0.73292 0.139035
135 1 0.526256 0.603276 0.164291
338 2 0.400107 0.562055 0.129025
269 1 0.407855 0.679946 0.0644596
353 2 0.558738 0.55255 0.0462442
34 1 0.337418 0.518915 0.0359431
287 1 0.391541 0.680027 0.240938
5 1 0.503708 0.616919 0.359886
105 1 0.350996 0.635339 0.394094
196 1 0.565796 0.719824 0.263292
358 2 0.609299 0.591867 0.437439
260 1 0.639603 0.564543 0.281785
141 1 0.435792 0.513719 0.26169
301 2 0.45379 0.694159 0.462184
64 1 0.44242 0.500447 0.443266
167 1 0.581007 0.699995 0.483184
304 2 0.626815 0.56443 0.658073
257 1 0.40827 0.612319 0.542352
87 1 0.479728 0.648059 0.682339
312 2 0.363774 0.593847 0.684562
130 1 0.54181 0.550266 0.55251
97 1 0.627277 0.693822 0.633755
148 1 0.669054 0.732938 0.902424
160 1 0.467791 0.575575 0.975751
95 1 0.459827 0.639214 0.832437
193 1 0.59277 0.594481 0.878245
137 1 0.593301 0.731404 0.773302
350 2 0.552532 0.566207 0.772358
98 1 0.350604 0.534976 0.806654
236 1 0.60981 0.809851 0.132095
39 1 0.481401 0.83753 0.0634245
127 1 0.571086 0.959053 0.181366
183 1 0.403786 0.963064 0.143292
174 1 0.456633 0.829536 0.216914
132 1 0.623161 1.01186 0.0544309
29 1 0.33288 0.887818 0.0114641
233 1 0.469616 0.982281 0.00776019
163 1 0.510745 0.93242 0.325186
314 2 0.592713 0.853793 0.250554
126 1 0.610906 0.811572 0.392047
176 1 0.413284 0.907979 0.440753
106 1 0.547543 0.932556 0.501682
10 1 0.468077 0.770075 0.354412
279 1 0.354909 0.967368 0.306773
164 1 0.355586 0.771005 0.475702
229 1 0.421261 0.934594 0.729229
226 1 0.489765 0.790923 0.601621
28 1 0.637616 0.839409 0.579686
345 2 0.507864 0.910654 0.621305
303 2 0.37296 0.76385 0.658474
40 1 0.578393 0.89749 0.724588
52 1 0.416644 0.905693 0.877803
42 1 0.618714 0.866279 0.974759
65 1 0.568557 0.978423 0.871304
359 2 0.572758 0.852215 0.850825
124 1 0.440138 0.775985 0.764934
57 1 0.502147 0.757542 0.914948
4 1 0.790191 0.107157 0.0556593
352 2 0.746905 0.133927 0.169973
13 1 0.890649 0.144854 0.174726
283 1 0.968771 0.0868619 0.0490308
319 2 0.891442 0.1922 0.0430873
275 1 0.739301 0.0080369 0.16722
305 2 0.739911 0.00249258 0.0197153
144 1 0.777982 0.061107 0.445335
347 2 0.888232 0.063594 0.3828
63 1 0.851432 0.214597 0.373156
187 1 0.71044 0.216651 0.257279
153 1 0.806261 0.0859847 0.288928
339 2 0.703511 0.133345 0.358659
150 1 0.946519 0.142804 0.502746
56 1 0.98958 0.122906 0.329743
326 2 0.902769 0.153498 0.611821
120 1 0.811751 0.188568 0.540811
205 1 0.825994 0.240009 0.684815
244 1 0.816293 0.0859434 0.690714
59 1 0.674026 0.148238 0.644082
166 1 0.982932 0.0398445 0.634293
154 1 1.0001 0.186163 0.683034
271 1 0.686295 0.00859686 0.565518
331 2 0.884785 0.170122 0.767249
256 1 0.951881 0.0662368 0.791915
337 2 0.688823 0.243534 0.871169
131 1 0.734126 0.161283 0.788406
23 1 0.877544 0.142888 0.918208
223 1 0.714876 0.0989994 0.936733
270 1 0.987105 0.224747 0.838835
89 1 0.778133 0.246268 0.97321
315 2 0.925365 0.386287 0.195862
200 1 0.935965 0.467734 0.0821759
355 2 0.743243 0.355384 0.0350456
45 1 0.79833 0.409195 0.132515
203 1 0.944772 0.287103 0.123081
27 1 0.7914 0.256748 0.129669
100 1 0.88126 0.498301 0.247224
249 1 0.847009 0.400165 0.398593
90 1 0.720726 0.296169 0.441259
255 1 0.991827 0.256795 0.420372
147 1 0.720654 0.415611 0.274375
356 2 0.862388 0.292764 0.467706
25 1 0.991717 0.392027 0.337382
281 1 0.846866 0.325306 0.266422
12 1 0.992023 0.262752 0.272335
85 1 0.974831 0.407483 0.503136
19 1 0.816732 0.358967 0.564532
342 2 0.93576 0.30448 0.730548
278 1 0.914757 0.439373 0.669019
111 1 0.94516 0.282548 0.572166
37 1 0.783955 0.387026 0.735661
77 1 0.690449 0.435078 0.510973
208 1 0.789025 0.471192 0.980755
84 1 0.83947 0.278812 0.824902
71 1 0.711183 0.370375 0.879185
273 1 0.887236 0.341047 0.974807
322 2 0.836065 0.395356 0.878077
235 1 0.947892 0.391365 0.812295
266 1 0.938273 0.493167 0.936936
213 1 0.812545 0.568587 0.0994274
188 1 0.715666 0.738821 0.0448586
329 2 0.735804 0.539679 0.19391
289 2 0.839346 0.690414 0.0320549
247 1 0.900834 0.699394 0.153082
162 1 0.953004 0.6094 0.0287967
206 1 0.681295 0.592607 0.0160601
156 1 0.668971 0.656336 0.164384
341 2 0.783564 0.743384 0.159144
272 1 0.937053 0.641127 0.311459
274 1 0.696213 0.679578 0.382112
80 1 0.841655 0.662196 0.445381
189 1 0.781762 0.633691 0.271159
31 1 0.934645 0.527871 0.406131
251 1 0.763167 0.529736 0.404362
292 2 0.938706 0.733923 0.399319
318 2 0.919144 0.717552 0.550552
115 1 0.998725 0.682627 0.653883
17 1 0.84662 0.503882 0.533776
3 1 0.83606 0.640325 0.608129
313 2 0.936782 0.56119 0.6374
264 1 0.696198 0.595711 0.523699
194 1 0.981311 0.615806 0.518264
190 1 0.744112 0.507013 0.644102
165 1 0.79764 0.625973 0.930477
197 1 0.809527 0.50337 0.823512
290 2 0.708428 0.524614 0.887898
344 2 0.93128 0.599868 0.876982
224 1 0.860049 0.664946 0.762343
51 1 0.919658 0.714513 0.926005
83 1 0.978093 0.564007 0.76997
328 2 0.791694 0.73205 0.859556
142 1 0.711955 0.621941 0.776991
230 1 0.737642 0.885456 0.0668096
184 1 0.804132 0.872886 0.20238
16 1 0.878118 0.814143 0.0570878
265 1 0.9561 0.860112 0.182784
259 1 0.888967 0.963996 0.105354
41 1 0.705966 0.781334 0.256258
20 1 0.861929 0.775979 0.301935
282 1 0.93473 0.976084 0.458755
169 1 0.831678 0.956161 0.346374
35 1 0.688772 0.931067 0.284714
310 2 0.746782 0.803375 0.369742
240 1 0.873113 0.826275 0.464471
96 1 0.734911 0.90688 0.454584
66 1 0.973901 0.861422 0.350162
121 1 0.945716 1.0009 0.249949
221 1 0.831674 0.960264 0.570815
21 1 0.727051 0.915107 0.686824
280 1 0.88923 0.942738 0.722191
225 1 0.881297 0.785309 0.643791
155 1 0.738488 0.767165 0.714113
298 2 0.771287 0.855718 0.571862
18 1 0.967099 0.890177 0.584327
72 1 0.743276 0.75228 0.506425
296 2 0.918293 0.850948 0.935188
101 1 0.86518 1.00255 0.96617
157 1 0.797975 0.854123 0.92801
158 1 0.863762 0.826707 0.799929
94 1 0.685031 0.879142 0.82953
175 1 0.784055 0.999685 0.829931
ITEM: TIMESTEP
200000
ITEM: NUMBER OF ATOMS
360
ITEM: BOX BOUNDS pp pp pp
0.0000000000000000e+00 6.6943295008216896e+00
0.0000000000000000e+00 6.6943295008216896e+00
0.0000000000000000e+00 6.6943295008216896e+00
ITEM: ATOMS id type xs ys zs
171 1 0.105108 0.0979689 0.146195
74 1 0.195238 0.127377 0.0191969
114 1 0.245906 0.0212233 0.128015
227 1 0.249371 0.178242 0.180532
327 2 0.145779 0.220828 0.113461
336 2 0.285479 0.0421166 0.0135073
27 1 0.0133479 0.22932 0.0996981
49 1 0.147654 0.0895382 0.437163
14 1 0.201303 0.224837 0.37861
293 2 0.319447 0.173106 0.281568
133 1 0.184282 0.0952279 0.281525
99 1 0.306295 0.0658236 0.38977
348 2 0.282041 0.151082 0.480981
255 1 0.0262888 0.214252 0.410191
12 1 0.0197277 0.142836 0.268495
212 1 0.280743 0.140103 0.660134
18 1 0.0468057 0.130835 0.554055
233 1 0.113886 0.183693 0.687815
150 1 0.186609 0.183997 0.553218
81 1 0.12979 0.0123497 0.651096
6 1 0.249832 0.0292607 0.541182
342 2 0.00994172 0.240524 0.735562
234 1 0.227719 0.17348 0.800782
70 1 0.0911472 0.238598 0.831376
8 1 0.0848424 0.0898619 0.817416
300 2 0.141565 0.162223 0.91116
319 2 0.00709571 0.206492 0.918334
237 1 0.0386548 0.0953136 0.96734
36 1 0.196862 0.0235574 0.907483
103 1 0.245294 0.0118721 0.764834
207 1 0.251127 0.243463 0.945088
203 1 0.0888897 0.36486 0.128919
9 1 0.135357 0.251559 0.246506
67 1 0.237679 0.316145 0.111655
186 1 0.201306 0.413359 0.224357
30 1 0.308323 0.490994 0.0657592
323 2 0.194701 0.436408 0.102788
334 2 0.077171 0.402821 0.00362269
182 1 0.0449779 0.462023 0.241915
215 1 0.207184 0.452161 0.365584
173 1 0.285737 0.301897 0.285121
85 1 0.100319 0.349751 0.395229
351 2 0.0797792 0.496367 0.389368
116 1 0.246796 0.346792 0.46306
360 2 0.112584 0.264777 0.485663
278 1 0.0742378 0.353344 0.728449
33 1 0.233946 0.287806 0.695463
267 1 0.270266 0.437391 0.639802
111 1 0.144863 0.361912 0.586434
317 2 0.245144 0.492619 0.515508
91 1 0.0421694 0.438974 0.502993
285 1 0.0184158 0.274784 0.597541
302 2 0.331986 0.353554 0.72619
241 1 0.118501 0.492117 0.655595
172 1 0.0489621 0.377287 0.871826
333 2 0.169672 0.334057 0.876488
210 1 0.194473 0.446958 0.795011
276 1 0.232275 0.399455 0.974181
242 1 0.298966 0.330602 0.844383
177 1 0.110608 0.276464 0.986248
290 2 0.124611 0.491149 0.884991
112 1 0.255451 0.655777 0.172633
238 1 0.150261 0.541886 0.148133
268 1 0.150058 0.688159 0.0579106
2 1 0.330785 0.658815 0.00373617
168 1 0.100751 0.695752 0.226285
357 2 0.227636 0.597042 0.04282
228 1 0.0257308 0.634772 0.11616
291 2 0.0197383 0.593255 0.238729
123 1 0.130399 0.537803 0.00155316
109 1 0.167008 0.568271 0.47125
252 1 0.0744041 0.714296 0.373664
260 1 0.136955 0.568881 0.303001
245 1 0.241096 0.690408 0.334102
288 1 0.295198 0.522745 0.262115
217 1 0.304795 0.56137 0.41571
87 1 0.215232 0.713829 0.492085
280 1 0.0365934 0.73319 0.666885
62 1 0.155899 0.640855 0.613479
115 1 0.0241636 0.629465 0.518372
61 1 0.278334 0.7388 0.633072
108 1 0.30704 0.604655 0.572149
313 2 0.0981759 0.606645 0.724906
214 1 0.231298 0.593138 0.732323
50 1 0.27468 0.543021 0.921852
262 1 0.183425 0.738353 0.765431
51 1 0.119449 0.612838 0.850815
354 2 0.0810253 0.671473 0.954323
136 1 0.195938 0.731187 0.921454
22 1 0.0275921 0.509511 0.792008
98 1 0.331375 0.669791 0.829749
180 1 0.264435 0.786555 0.0852461
55 1 0.11928 0.967889 0.0449934
199 1 0.125188 0.947586 0.214325
128 1 0.0939474 0.816962 0.12421
316 2 0.209689 0.901182 0.117479
92 1 0.208388 0.802381 0.228143
258 1 0.163293 0.841459 0.39152
301 2 0.274841 0.821814 0.456238
265 1 0.0383226 0.819894 0.266135
56 1 0.242932 0.953296 0.307583
263 1 0.0800467 0.989597 0.358649
346 2 0.208173 0.962292 0.445305
202 1 0.183139 0.872793 0.699488
220 1 0.209657 0.872951 0.543586
286 1 0.0722546 0.965786 0.501813
296 2 0.157914 0.776261 0.623793
73 1 0.0383011 0.895232 0.641608
43 1 0.0650639 0.786469 0.522495
270 1 0.0528169 0.952582 0.907054
185 1 0.118699 0.83978 0.98386
29 1 0.210691 0.873142 0.857471
204 1 0.0384851 0.862122 0.790022
321 2 0.305727 0.955868 0.873665
299 2 0.118277 0.961225 0.795278
53 1 0.325829 0.84051 0.765142
295 2 0.0896649 0.77058 0.867688
261 1 0.26587 0.918442 0.993676
330 2 0.518522 0.225197 0.22003
131 1 0.617385 0.169341 0.0253776
219 1 0.491542 0.139375 0.127399
201 1 0.339935 0.162326 0.0351977
335 2 0.4526 0.227882 0.046592
309 2 0.602829 0.0670048 0.0930341
146 1 0.354908 0.0383596 0.227312
42 1 0.398086 0.026299 0.0806239
246 1 0.384934 0.238863 0.169989
314 2 0.478839 0.158916 0.446967
60 1 0.482371 0.0320094 0.43213
88 1 0.441969 0.151826 0.311608
308 2 0.589994 0.0364615 0.369476
118 1 0.630017 0.143199 0.448119
253 1 0.491437 0.0153436 0.268943
187 1 0.589123 0.12883 0.255513
113 1 0.544923 0.242997 0.375124
11 1 0.400908 0.238267 0.748534
47 1 0.547539 0.0865372 0.579635
40 1 0.432158 0.0828061 0.672347
86 1 0.538358 0.209093 0.69269
294 2 0.441329 0.191691 0.609588
140 1 0.382101 0.10594 0.528988
120 1 0.64852 0.21555 0.58299
48 1 0.575719 0.0472626 0.730629
303 2 0.346889 0.121484 0.77169
175 1 0.630961 0.0870226 0.881295
132 1 0.468874 0.113191 0.821173
129 1 0.494257 0.105132 0.971869
284 1 0.411829 0.222434 0.902718
69 1 0.584535 0.227315 0.849136
320 2 0.538219 0.00297483 0.900758
254 1 0.345258 0.0829053 0.891522
156 1 0.620882 0.415259 0.158958
209 1 0.522528 0.304729 0.122359
141 1 0.365398 0.385794 0.189969
78 1 0.466363 0.455278 0.0866865
79 1 0.37508 0.325492 0.0391473
71 1 0.662327 0.336312 0.0191598
232 1 0.56636 0.439543 0.377833
306 2 0.464194 0.353922 0.432777
102 1 0.38645 0.417825 0.358567
58 1 0.632646 0.335948 0.468471
139 1 0.665902 0.356904 0.295386
93 1 0.487646 0.352015 0.274161
248 1 0.372012 0.255717 0.410594
143 1 0.599469 0.365904 0.61766
218 1 0.427557 0.373884 0.650982
170 1 0.540828 0.462777 0.742833
44 1 0.496505 0.265942 0.524868
310 2 0.563602 0.329099 0.750338
104 1 0.371533 0.451536 0.518759
26 1 0.337209 0.255966 0.572467
251 1 0.515304 0.436484 0.523343
250 1 0.401586 0.438982 0.94061
76 1 0.519766 0.337748 0.967418