ITEM: TIMESTEP
0
ITEM: NUMBER OF ATOMS
360
ITEM: BOX BOUNDS pp pp pp
0.0000000000000000e+00 6.6943295008216896e+00
0.0000000000000000e+00 6.6943295008216896e+00
0.0000000000000000e+00 6.6943295008216896e+00
ITEM: ATOMS id type xs ys zs
19 1 0.0919217 0.20923 0.150383
250 1 0.0296722 0.0454569 0.171116
231 1 0.189502 0.093224 0.175847
28 1 0.119439 0.0781683 0.0241737
178 1 0.235199 0.218283 0.0866335
120 1 0.290361 0.0107272 0.0783091
183 1 0.333201 0.159444 0.200195
96 1 0.0883779 0.147762 0.300507
36 1 0.219398 0.142333 0.407678
338 2 0.153208 0.0257495 0.476188
97 1 0.050882 0.110397 0.443315
59 1 0.278354 0.0483943 0.283708
237 1 0.138636 0.00643528 0.324931
50 1 0.20449 0.218984 0.260389
340 2 0.154758 0.248376 0.375993
326 2 0.273923 0.00576504 0.408472
47 1 0.0924899 0.181808 0.554875
110 1 0.239629 0.105506 0.717823
228 1 0.208789 0.0794052 0.568336
77 1 0.27791 0.217499 0.53502
206 1 0.0644783 0.11119 0.703154
317 2 0.332596 0.161718 0.643752
205 1 0.00038243 0.246668 0.661001
325 2 0.123232 0.0144533 0.735292
166 1 0.190919 0.220091 0.799362
215 1 0.0214013 0.212829 0.811284
152 1 0.121366 0.0826564 0.860873
114 1 0.235229 0.153375 0.932408
241 1 0.0702825 0.223388 0.948883
350 2 0.318997 0.129836 0.827163
223 1 0.264137 0.0149477 0.839159
137 1 0.0855567 0.386729 0.189785
202 1 0.24619 0.342907 0.167892
63 1 0.289525 0.349364 0.0218774
177 1 0.129176 0.358928 0.0445459
103 1 0.0411748 0.477537 0.0600668
43 1 0.196901 0.492418 0.0527525
307 2 0.115562 0.436146 0.422897
32 1 0.0358168 0.292289 0.31138
288 1 0.2396 0.43571 0.458704
171 1 0.279827 0.2939 0.419105
347 2 0.297642 0.497245 0.362576
286 1 0.188645 0.420721 0.294376
52 1 0.0562379 0.465689 0.324432
335 2 0.328409 0.263691 0.26157
108 1 0.149349 0.323052 0.482932
38 1 0.0462021 0.422084 0.694899
104 1 0.118263 0.479965 0.556008
351 2 0.190034 0.472889 0.651775
116 1 0.252643 0.371197 0.598962
133 1 0.142311 0.2785 0.649387
279 1 0.319219 0.266432 0.701892
159 1 0.0088539 0.364073 0.558219
81 1 0.194776 0.376918 0.748216
342 2 0.315435 0.416289 0.715793
18 1 0.300722 0.444664 0.901451
238 1 0.0351777 0.482248 0.83781
101 1 0.175297 0.370737 0.890217
319 2 0.0585785 0.349094 0.812879
292 2 0.19794 0.269223 0.948642
58 1 0.0167457 0.371424 0.938286
185 1 0.314597 0.288523 0.853229
119 1 0.288398 0.500989 0.210582
217 1 0.148579 0.701532 0.202992
263 1 0.278654 0.683622 0.124676
109 1 0.0313429 0.626141 0.114957
353 2 0.16331 0.605727 0.0771476
150 1 0.146522 0.745523 0.056299
313 2 0.0109898 0.734259 0.034908
155 1 0.145437 0.539566 0.188035
293 2 0.0344365 0.603564 0.247727
308 2 0.284181 0.63676 0.241954
53 1 0.331953 0.512648 0.054001
234 1 0.278712 0.609045 0.453378
90 1 0.207297 0.571634 0.319605
204 1 0.0442416 0.698366 0.3293
118 1 0.0809176 0.590591 0.414195
283 1 0.226904 0.717694 0.34733
270 1 0.10947 0.746743 0.451135
62 1 0.148565 0.623504 0.546006
182 1 0.0733513 0.707591 0.685709
201 1 0.236636 0.68108 0.668455
98 1 0.148723 0.570396 0.711776
34 1 0.27619 0.548822 0.608411
330 2 0.0245499 0.627232 0.518615
85 1 0.0141288 0.583604 0.626157
2 1 0.175864 0.534344 0.902634
1 1 0.236657 0.653408 0.824641
125 1 0.24764 0.644248 0.979796
25 1 0.0493152 0.630493 0.833432
261 1 0.085922 0.632397 0.982902
253 1 0.269592 0.509788 0.77717
186 1 0.00591902 0.962935 0.054606
222 1 0.289508 0.787018 0.0038219
311 2 0.251079 0.795588 0.157663
86 1 0.0493186 0.80964 0.156081
208 1 0.175736 0.926261 0.154218
42 1 0.154396 0.842309 0.279534
151 1 0.273183 0.86063 0.400626
260 1 0.130948 0.899402 0.426804
55 1 0.300507 0.899537 0.258169
153 1 0.237076 0.92077 0.520234
131 1 0.0871654 0.881091 0.715631
5 1 0.223648 0.940038 0.679288
45 1 0.0889794 0.972345 0.597248
232 1 0.150328 0.818454 0.590893
301 2 0.0465072 0.753562 0.570084
147 1 0.330568 0.847841 0.617982
138 1 0.263461 0.757246 0.51873
314 2 0.0587034 0.958082 0.94002
327 2 0.253186 0.892766 0.882557
255 1 0.0550282 0.842253 0.988051
6 1 0.138086 0.928382 0.840607
246 1 0.0445242 0.781527 0.828945
61 1 0.172605 0.771439 0.914645
3 1 0.178701 0.951245 0.979822
240 1 0.00127728 0.982622 0.792181
216 1 0.220502 0.808189 0.761134
285 1 0.325861 0.792218 0.863963
157 1 0.605096 0.174184 0.205802
56 1 0.47838 0.13615 0.072541
129 1 0.607767 0.0469162 0.0442467
9 1 0.401991 0.0129839 0.17215
302 2 0.527095 0.0240312 0.144539
357 2 0.356075 0.15075 0.0794892
163 1 0.614421 0.208893 0.051473
92 1 0.537845 0.218034 0.364562
93 1 0.596838 0.0707028 0.355885
107 1 0.479216 0.0628827 0.448179
181 1 0.468028 0.110388 0.272178
267 1 0.374424 0.191347 0.358016
306 2 0.590814 0.145492 0.48617
249 1 0.444057 0.199554 0.485585
87 1 0.621648 0.0250217 0.513761
142 1 0.640117 0.138796 0.596977
221 1 0.493205 0.13248 0.605635
332 2 0.581531 0.0336266 0.63896
60 1 0.58411 0.126596 0.733403
287 1 0.379699 0.0693156 0.709193
75 1 0.356488 0.0906265 0.543291
280 1 0.461403 0.207005 0.74702
187 1 0.499572 0.00377707 0.738638
95 1 0.441522 0.107197 0.840431
26 1 0.373556 0.220167 0.958464
128 1 0.358117 0.0806191 0.971955
192 1 0.593454 0.133022 0.91319
320 2 0.610774 0.0238486 0.803435
176 1 0.445169 0.448262 0.12153
254 1 0.391264 0.276483 0.107514
73 1 0.599024 0.451088 0.0530481
190 1 0.57922 0.325628 0.152586
328 2 0.510343 0.278155 0.0105302
309 2 0.369956 0.37752 0.18559
256 1 0.46311 0.259108 0.241186
76 1 0.498825 0.406837 0.282858
265 1 0.65822 0.406431 0.265525
266 1 0.581836 0.411796 0.411521
68 1 0.447626 0.338057 0.416995
78 1 0.33754 0.379586 0.310982
358 2 0.587422 0.302147 0.283314
74 1 0.443408 0.483352 0.39285
276 1 0.586449 0.268762 0.498022
336 2 0.661022 0.488779 0.734257
71 1 0.527216 0.407659 0.543927
210 1 0.578265 0.256025 0.660309
91 1 0.40843 0.358183 0.637125
113 1 0.632152 0.397372 0.638944
355 2 0.366445 0.303802 0.513043
322 2 0.487314 0.275132 0.575854
64 1 0.506959 0.469855 0.673467
164 1 0.381361 0.452225 0.520985
294 2 0.501004 0.325386 0.728232
233 1 0.578543 0.414901 0.794063
167 1 0.602376 0.494375 0.9125
12 1 0.431974 0.373255 0.96454
284 1 0.488072 0.284532 0.866695
197 1 0.615449 0.330252 0.941241
213 1 0.413561 0.409805 0.805762
57 1 0.639615 0.251547 0.815584
200 1 0.624005 0.661046 0.170168
220 1 0.393558 0.605249 0.167959
244 1 0.477297 0.746653 0.123229
339 2 0.487606 0.583439 0.0674552
277 1 0.55661 0.529039 0.191749
35 1 0.601773 0.597356 0.0244864
189 1 0.400563 0.65983 0.00847361
346 2 0.415421 0.505758 0.238001
37 1 0.584307 0.551474 0.341577
229 1 0.640233 0.642028 0.477417
224 1 0.498262 0.692469 0.273185
84 1 0.648174 0.706669 0.3225
242 1 0.474791 0.652715 0.423683
315 2 0.340194 0.726064 0.393298
274 1 0.369947 0.596558 0.331408
303 2 0.587249 0.514777 0.492225
122 1 0.505704 0.670878 0.657883
89 1 0.38528 0.679582 0.556334
46 1 0.480595 0.562468 0.55966
258 1 0.398307 0.570479 0.700196
359 2 0.519873 0.687177 0.54222
173 1 0.645343 0.566949 0.62815
168 1 0.36833 0.742638 0.719486
172 1 0.460778 0.519407 0.952097
196 1 0.546248 0.727646 0.794119
179 1 0.595402 0.583257 0.781112
348 2 0.533695 0.617512 0.886696
134 1 0.402373 0.638864 0.846575
291 2 0.474768 0.524436 0.782821
180 1 0.525084 0.723078 0.956885
321 2 0.342523 0.562567 0.937852
188 1 0.462815 0.850216 0.237867
23 1 0.633038 0.818066 0.206522
102 1 0.552312 0.881037 0.0888671
225 1 0.363306 0.875323 0.114094
272 1 0.465326 0.980562 0.017772
10 1 0.629466 0.769125 0.0565942
257 1 0.404201 0.978678 0.323507
17 1 0.56233 0.780357 0.424573
341 2 0.545144 0.860315 0.321386
248 1 0.422098 0.826738 0.397797
289 2 0.648235 0.904729 0.462233
154 1 0.52802 0.928864 0.435933
295 2 0.35058 0.834465 0.49874
30 1 0.378847 0.960746 0.474765
132 1 0.665127 0.875356 0.344016
21 1 0.569455 0.959402 0.252932
79 1 0.350981 0.750132 0.254515
40 1 0.475988 0.848038 0.708481
323 2 0.575781 0.783954 0.675443
227 1 0.482098 0.982066 0.577653
51 1 0.591638 0.891218 0.627058
281 1 0.664177 0.764209 0.579553
20 1 0.467224 0.817072 0.557584
344 2 0.335935 0.978453 0.610211
175 1 0.355139 0.917036 0.936086
360 2 0.546877 0.862776 0.969522
160 1 0.345064 0.910426 0.767855
219 1 0.471142 0.852929 0.861054
94 1 0.600541 0.876472 0.777529
67 1 0.570171 0.97891 0.914311
334 2 0.42818 0.811854 0.989868
290 2 0.429567 0.971893 0.85691
198 1 0.641804 0.79896 0.893659
271 1 0.858577 0.053865 0.192559
296 2 0.777448 0.17949 0.212278
251 1 0.934956 0.189846 0.232251
31 1 0.854874 0.229335 0.115993
29 1 0.733131 0.10063 0.102038
174 1 0.983737 0.149099 0.0531059
127 1 0.858561 0.0901278 0.0118109
273 1 0.703807 0.038939 0.265215
135 1 0.803334 0.129701 0.32688
11 1 0.883544 0.0813949 0.458289
333 2 0.841903 0.0168309 0.312148
115 1 0.972539 0.0520945 0.316557
259 1 0.98738 0.241913 0.454851
124 1 0.706221 0.14369 0.457204
297 2 0.937137 0.171486 0.348353
226 1 0.689637 0.227211 0.330276
16 1 0.83794 0.249108 0.427036
161 1 0.778925 0.0752496 0.578689
27 1 0.770534 0.176398 0.704529
209 1 0.877954 0.191003 0.564178
278 1 0.96197 0.0651818 0.611128
136 1 0.725339 0.194394 0.94884
331 2 0.843939 0.140454 0.863034
41 1 0.97036 0.0874679 0.910066
65 1 0.836034 0.0156112 0.841834
13 1 0.70803 0.0967078 0.824308
111 1 0.726209 0.0387168 0.958399
83 1 0.917893 0.231217 0.916998
106 1 0.921902 0.115784 0.756811
33 1 0.878152 0.435669 0.0308531
144 1 0.974287 0.31214 0.0708599
169 1 0.881259 0.36833 0.1672
235 1 0.710796 0.275197 0.1793
262 1 0.728544 0.405383 0.1294
24 1 0.777916 0.309373 0.0212782
195 1 0.967853 0.494425 0.206026
203 1 0.742043 0.371631 0.396714
243 1 0.93723 0.366951 0.413777
304 2 0.718744 0.263121 0.452017
268 1 0.847241 0.48525 0.405178
236 1 0.827893 0.279719 0.281898
312 2 0.971446 0.387044 0.283296
337 2 0.71263 0.497751 0.353814
69 1 0.818433 0.451497 0.269538
305 2 0.689775 0.316789 0.721413
130 1 0.739844 0.268654 0.593095
149 1 0.766612 0.442183 0.679997
4 1 0.844609 0.387964 0.535415
148 1 0.853416 0.305943 0.693032
310 2 0.916252 0.410543 0.642523
316 2 0.84444 0.339545 0.909238
299 2 0.828133 0.409804 0.778681
191 1 0.713717 0.385222 0.838724
15 1 0.862939 0.465473 0.877279
194 1 0.940669 0.350696 0.808986
54 1 0.735587 0.481289 0.991862
165 1 0.797362 0.257232 0.825751
212 1 0.797838 0.698983 0.200869
218 1 0.819477 0.542811 0.14422
158 1 0.735959 0.646507 0.069001
14 1 0.711744 0.558246 0.249484
123 1 0.887597 0.660818 0.0633261
318 2 0.687895 0.541007 0.128091
356 2 0.938707 0.555498 0.0777381
72 1 0.949328 0.70473 0.202512
329 2 0.847992 0.729342 0.463956
199 1 0.891544 0.586412 0.28174
193 1 0.770844 0.613311 0.386565
214 1 0.917633 0.630801 0.426451
8 1 0.985033 0.501562 0.494039
245 1 0.815171 0.603608 0.709112
352 2 0.828212 0.732163 0.67165
207 1 0.769307 0.649695 0.558096
39 1 0.684843 0.685821 0.718417
146 1 0.936653 0.701828 0.579413
100 1 0.869116 0.534351 0.572135
82 1 0.714883 0.501146 0.504952
88 1 0.92943 0.501913 0.720985
300 2 0.883643 0.611714 0.831469
7 1 0.736345 0.553342 0.831766
121 1 0.672957 0.661873 0.900596
48 1 0.821846 0.596764 0.947875
126 1 0.960905 0.549073 0.950009
170 1 0.799412 0.719413 0.819426
139 1 0.946096 0.689282 0.908491
264 1 0.931935 0.703987 0.752076
184 1 0.827809 0.948674 0.0752078
239 1 0.762519 0.818202 0.111371
211 1 0.939832 0.924858 0.184586
112 1 0.9132 0.81968 0.0758375
324 2 0.886076 0.812227 0.216825
80 1 0.688575 0.896217 0.00240724
247 1 0.800095 0.911612 0.236197
141 1 0.688466 0.951108 0.147971
66 1 0.958226 0.817118 0.47412
345 2 0.792929 0.882614 0.466183
275 1 0.753384 0.987607 0.437491
49 1 0.733069 0.774425 0.434154
145 1 0.994863 0.971757 0.451458
70 1 0.8772 0.915644 0.364967
349 2 0.742488 0.79099 0.276673
230 1 0.999198 0.834727 0.301749
252 1 0.866061 0.772816 0.340827
162 1 0.829331 0.805123 0.569371
282 1 0.732905 0.924656 0.570712
117 1 0.878433 0.952434 0.544603
269 1 0.747652 0.847977 0.714388
22 1 0.839981 0.973618 0.698927
343 2 0.969357 0.96041 0.670088
156 1 0.96674 0.85031 0.621644
99 1 0.685236 0.991548 0.701052
298 2 0.914802 0.812683 0.947745
105 1 0.889184 0.841729 0.792369
140 1 0.717033 0.928989 0.84406
354 2 0.808642 0.930927 0.937343
44 1 0.941347 0.931366 0.923986
143 1 0.781974 0.791265 0.958244
ITEM: TIMESTEP
50000
ITEM: NUMBER OF ATOMS
360
ITEM: BOX BOUNDS pp pp pp
0.0000000000000000e+00 6.6943295008216896e+00
0.0000000000000000e+00 6.6943295008216896e+00
0.0000000000000000e+00 6.6943295008216896e+00
ITEM: ATOMS id type xs ys zs
114 1 0.283523 0.123086 0.146212
41 1 0.129069 0.118824 0.1309
26 1 0.19053 0.240466 0.207892
44 1 0.0867335 0.0159718 0.0218397
235 1 0.0191558 0.218364 0.198139
91 1 0.267127 0.247193 0.0292581
183 1 0.321569 0.077979 0.460263
350 2 0.177735 0.0765836 0.278591
145 1 0.0534942 0.0842046 0.340896
176 1 0.258375 0.160398 0.313394
115 1 0.180389 0.117247 0.455795
97 1 0.0818093 0.140174 0.579734
112 1 0.00757473 0.0159774 0.635061
286 1 0.261473 0.162246 0.585254
205 1 0.154233 0.0395093 0.709972
131 1 0.150464 0.00315761 0.554134
326 2 0.287662 0.039775 0.589868
108 1 0.0297902 0.11502 0.739902
152 1 0.158123 0.232813 0.694644
285 1 0.218143 0.10335 1.006
280 1 0.172495 0.195396 0.85512
319 2 0.119594 0.18922 1.00364
3 1 0.036076 0.138418 0.899488
321 2 0.245894 0.135154 0.750157
67 1 0.294381 0.0443024 0.850605
189 1 0.141156 0.0423571 0.866786
63 1 0.321372 0.326335 0.185285
103 1 0.213828 0.384348 0.0829915
186 1 0.0970966 0.288899 0.0971503
163 1 0.0683213 0.445462 0.128487
90 1 0.237503 0.498186 0.189542
202 1 0.115894 0.355861 0.25396
337 2 0.0435227 0.324601 0.441756
137 1 0.238708 0.375241 0.306705
135 1 0.147854 0.403748 0.437977
159 1 0.00572649 0.454376 0.345832
217 1 0.267315 0.485149 0.411855
19 1 0.266289 0.252564 0.445381
174 1 0.132844 0.241593 0.371621
52 1 0.206697 0.438225 0.570861
310 2 0.232669 0.365565 0.677316
85 1 0.0967448 0.375132 0.661378
34 1 0.311799 0.338776 0.583414
8 1 0.0400999 0.428468 0.538426
172 1 0.20625 0.490759 0.730009
117 1 0.00729233 0.278781 0.585301
236 1 0.171743 0.290255 0.5551
36 1 0.305537 0.254181 0.720172
166 1 0.156451 0.348819 0.806215
340 2 0.0335144 0.393164 0.856887
101 1 0.153295 0.316775 0.945376
228 1 0.308582 0.400202 0.788955
251 1 0.0513496 0.419848 0.979013
185 1 0.308551 0.261336 0.886996
206 1 0.0259849 0.276496 0.753922
347 2 0.219789 0.448301 0.962587
241 1 0.337894 0.379121 0.960291
279 1 0.0494131 0.48529 0.73689
182 1 0.161083 0.709422 0.0765094
38 1 0.250128 0.64474 0.176244
261 1 0.307865 0.580705 0.0569806
177 1 0.161897 0.539186 0.039573
125 1 0.103316 0.599552 0.195771
150 1 0.0138856 0.588656 0.0783641
160 1 0.306863 0.733873 0.0101042
234 1 0.114093 0.744708 0.209402
343 2 0.0601171 0.49998 0.242257
249 1 0.263148 0.612576 0.484968
42 1 0.0365293 0.642905 0.343353
297 2 0.133876 0.667462 0.426738
62 1 0.209079 0.702432 0.316826
74 1 0.308963 0.592577 0.319262
288 1 0.105246 0.567011 0.479159
104 1 0.00310244 0.692736 0.499026
263 1 0.162684 0.528125 0.316704
89 1 0.331458 0.729943 0.411066
81 1 0.273226 0.575777 0.623224
201 1 0.167334 0.70064 0.552142
207 1 0.137559 0.630026 0.686805
324 2 0.126985 0.54659 0.601014
100 1 0.0611196 0.636186 0.947557
2 1 0.207467 0.642645 0.942234
98 1 0.011389 0.631497 0.768738
43 1 0.302499 0.51932 0.908426
351 2 0.129158 0.642649 0.82468
213 1 0.253 0.639573 0.780795
155 1 0.119888 0.50177 0.872572
318 2 0.326626 0.649678 0.920618
260 1 0.248208 0.793267 0.185045
317 2 0.141713 0.870404 0.167666
59 1 0.0935396 0.851869 0.045661
357 2 0.230279 0.832359 0.0611409
358 2 0.269439 0.925485 0.208079
55 1 0.209805 0.976112 0.11447
96 1 0.098735 0.984946 0.225333
230 1 0.0227141 0.856183 0.189123
250 1 0.112527 0.939698 0.425461
50 1 0.242604 1.00626 0.348462
237 1 0.162683 0.797104 0.418882
232 1 0.00746076 0.782998 0.357866
79 1 0.30161 0.859564 0.338004
151 1 0.149839 0.859879 0.287894
211 1 -0.00168485 0.941379 0.328458
178 1 0.287555 0.928791 0.472042
323 2 0.166544 0.873235 0.691977
77 1 0.279154 0.922625 0.632219
110 1 0.160036 0.855098 0.554309
270 1 0.0481288 0.757257 0.629683
348 2 0.322137 0.836954 0.724715
5 1 0.302 0.77983 0.554836
333 2 0.0636556 0.911332 0.596309
214 1 0.00380349 0.84544 0.49449
1 1 0.220606 0.76894 0.697134
14 1 0.0549559 0.915766 0.900615
216 1 0.185694 0.792253 0.941491
149 1 0.0740494 0.927763 0.752129
120 1 0.214211 0.948791 0.961577
134 1 0.222194 0.906863 0.805357
7 1 0.300811 0.789674 0.843976
308 2 0.0510857 0.763938 0.956894
246 1 0.116515 0.78557 0.785332
190 1 0.392606 0.204588 0.115697
141 1 0.608062 0.110109 0.188267
322 2 0.462006 0.151437 0.242892
309 2 0.324218 0.206589 0.229495
219 1 0.442668 0.062853 0.14655
331 2 0.612885 0.218216 0.11517
57 1 0.524649 0.106636 0.0291043
175 1 0.337471 0.0108298 0.0497001
76 1 0.520435 0.249052 0.194293
254 1 0.346846 0.0150694 0.245393
344 2 0.396017 0.0888799 0.343779
106 1 0.477027 0.0858468 0.444847
256 1 0.570664 0.20004 0.334048
154 1 0.513983 0.0314308 0.289048
231 1 0.397619 0.223558 0.349795
267 1 0.399859 0.201622 0.514038
142 1 0.571947 0.190537 0.509294
99 1 0.459788 0.106732 0.603425
87 1 0.580872 0.1363 0.689236
221 1 0.597399 0.0485637 0.547476
60 1 0.342064 0.0732171 0.698868
291 2 0.467809 0.100257 0.73349
276 1 0.467323 0.248173 0.677946
13 1 0.570516 0.0508277 0.817069
332 2 0.490528 0.150803 0.898364
210 1 0.387352 0.154163 0.972586
140 1 0.558287 0.213219 0.814875
12 1 0.398448 0.171033 0.81429
287 1 0.458272 0.0186678 0.926212
127 1 0.556864 0.247674 0.965831
341 2 0.660038 0.0713429 0.903365
277 1 0.369415 0.459008 0.103328
37 1 0.610286 0.341059 0.105047
121 1 0.450308 0.332765 0.0634383
244 1 0.521307 0.445476 0.167424
306 2 0.451199 0.357677 0.194512
248 1 0.599396 0.493907 0.0298586
109 1 0.368752 0.357056 0.427774
314 2 0.363742 0.336245 0.305213
171 1 0.385843 0.448193 0.257856
191 1 0.50241 0.461982 0.44001
27 1 0.615377 0.358129 0.431337
68 1 0.497644 0.327969 0.322654
266 1 0.629535 0.408615 0.27782
339 2 0.48328 0.264955 0.438379
293 2 0.61341 0.280392 0.255316
233 1 0.433238 0.400904 0.67687
342 2 0.63941 0.294326 0.534862
179 1 0.356901 0.46915 0.542536
165 1 0.487135 0.333145 0.547286
360 2 0.334375 0.491359 0.689215
20 1 0.647412 0.382362 0.62242
316 2 0.617904 0.268417 0.689755
148 1 0.428022 0.30992 0.812587
73 1 0.444297 0.474263 0.830893
300 2 0.659167 0.286072 0.847249
35 1 0.515824 0.384758 0.931642
158 1 0.629937 0.463575 0.850318
346 2 0.419012 0.275375 0.951734
259 1 0.664356 0.348771 0.956689
15 1 0.557769 0.353815 0.772714
180 1 0.447166 0.646807 0.0641736
78 1 0.399938 0.592156 0.191217
119 1 0.545959 0.622482 0.200569
334 2 0.507057 0.53949 0.0996116
61 1 0.583943 0.643631 -0.00211548
197 1 0.666406 0.51997 0.18527
224 1 0.470525 0.607176 0.34356
305 2 0.460852 0.713226 0.439976
315 2 0.510434 0.709935 0.289236
71 1 0.618857 0.641657 0.323984
116 1 0.407589 0.607733 0.477166
173 1 0.57043 0.624184 0.475474
289 2 0.530991 0.503754 0.29515
302 2 0.373798 0.688035 0.288481
303 2 0.38977 0.522943 0.376231
130 1 0.645959 0.507751 0.400689
355 2 0.353726 0.673545 0.581518
64 1 0.530744 0.525232 0.726035
258 1 0.424447 0.586221 0.631656
164 1 0.568407 0.675596 0.6996
113 1 0.554338 0.504698 0.580301
107 1 0.481454 0.713035 0.576674
153 1 0.370938 0.724923 0.687381
336 2 0.651519 0.521573 0.675356
220 1 0.539833 0.606708 0.861178
168 1 0.491825 0.755094 0.799734
53 1 0.456851 0.517498 0.987024
299 2 0.644698 0.615228 0.786207
94 1 0.396 0.623878 0.813186
253 1 0.441833 0.707338 0.922976
245 1 0.65229 0.742683 0.859558
272 1 0.481217 0.941402 0.0562324
95 1 0.479372 0.891731 0.204584
129 1 0.631201 0.884684 0.0999514
138 1 0.542549 0.758594 0.117425
208 1 0.359034 0.875623 0.115638
327 2 0.437024 0.798176 0.0523851
9 1 0.412311 0.758188 0.18134
283 1 0.600746 0.784237 0.247026
29 1 0.653842 0.979852 0.240743
328 2 0.55139 0.987879 0.143172
51 1 0.574365 0.952711 0.41488
181 1 0.407771 0.962042 0.369377
335 2 0.650101 0.885038 0.494705
257 1 0.591848 0.77786 0.410258
359 2 0.573488 0.899804 0.29791
147 1 0.428978 0.835573 0.48305
274 1 0.454469 0.806452 0.332781
128 1 0.413757 0.859132 0.629478
198 1 0.637388 0.986834 0.690498
295 2 0.520809 0.808884 0.68171
196 1 0.561289 0.898657 0.594289
132 1 0.642214 0.744489 0.567166
170 1 0.658144 0.834537 0.733572
227 1 0.43629 0.976005 0.544282
187 1 0.482243 0.988549 0.703208
48 1 0.53839 0.8149 0.972211
167 1 0.525203 0.892725 0.813945
330 2 0.423803 0.826906 0.867966
284 1 0.596532 0.96513 0.943689
75 1 0.375103 0.923848 0.79669
225 1 0.359249 0.891296 0.959619
325 2 0.647057 0.756337 0.983634
83 1 0.870545 0.20196 0.128915
262 1 0.718816 0.17027 0.0801841
212 1 0.841014 0.0654704 0.08786
226 1 0.762547 0.130267 0.225205
72 1 0.975525 0.0658983 0.16777
111 1 0.682924 0.029763 0.0774236
70 1 1.00179 0.155721 0.0416596
296 2 0.766186 0.00595953 0.186912
304 2 0.799678 0.166041 0.335243
313 2 0.917918 0.0308631 0.364536
21 1 0.85905 0.108693 0.45672
92 1 0.6857 0.0886272 0.356149
144 1 0.912726 0.128781 0.290599
209 1 0.730557 0.18547 0.481111
45 1 1.00065 0.182056 0.446605
22 1 0.731052 0.00228129 0.464218
223 1 1.00614 0.0166393 0.485232
32 1 0.73197 0.0900495 0.613072
345 2 0.957048 0.114782 0.560107
354 2 0.743164 0.0812283 0.735958
273 1 0.868406 0.227733 0.556576
204 1 0.886645 0.104792 0.666392
11 1 0.723027 0.255248 0.618915
86 1 0.827199 0.0854948 0.826514
240 1 0.934344 0.0283972 0.934003
136 1 0.915799 0.205656 0.834524
292 2 0.958498 0.0699622 0.827018
184 1 0.86443 0.178256 0.962011
65 1 0.704954 0.17846 0.926394
139 1 0.714124 0.201387 0.771244
192 1 0.770791 0.0313061 0.954909
195 1 0.951479 0.399636 0.224543
169 1 0.901473 0.477714 0.109245
23 1 0.743997 0.465444 0.0630358
356 2 0.840147 0.36763 0.116929
54 1 0.789083 0.297009 0.0315249
31 1 0.962245 0.328815 0.0928417
16 1 0.732044 0.297146 0.182945
69 1 0.806682 0.444936 0.213696
275 1 0.921916 0.378917 0.478015
193 1 0.98494 0.287815 0.328304
124 1 0.751716 0.400098 0.347875
203 1 0.855416 0.288248 0.261277
271 1 0.850789 0.277197 0.412066
82 1 0.704015 0.253848 0.339527
243 1 0.785951 0.473519 0.617721
39 1 0.748889 0.367645 0.493275
352 2 0.817994 0.3435 0.617685
133 1 0.93243 0.394481 0.644261
301 2 0.903673 0.503426 0.562084
28 1 0.856407 0.252911 0.706116
47 1 0.731388 0.367149 0.758733
24 1 0.786309 0.298195 0.882494
264 1 0.77978 0.44632 0.884315
4 1 0.915142 0.366151 0.803317
18 1 0.904516 0.392929 0.954566
215 1 1.00584 0.279426 0.93501
353 2 0.788288 0.573174 0.187185
269 1 0.864103 0.661737 0.105831
200 1 0.700837 0.66353 0.192525
25 1 0.913541 0.553258 0.242428
102 1 0.729459 0.614526 0.0509218
229 1 0.970803 0.701538 0.215541
252 1 0.992021 0.728519 0.0753498
123 1 0.772705 0.587038 0.30607
199 1 0.887061 0.648427 0.377975
46 1 0.710901 0.665571 0.458387
122 1 0.730406 0.738395 0.321765
118 1 0.963499 0.546559 0.453075
242 1 0.805231 0.498465 0.458217
349 2 0.850324 0.70167 0.264873
312 2 0.866151 0.495068 0.341947
49 1 0.918977 0.691667 0.650258
265 1 0.852932 0.607362 0.540614
40 1 0.719014 0.702513 0.713513
329 2 0.811738 0.6347 0.669126
58 1 0.999816 0.561067 0.620796
268 1 0.703231 0.607939 0.599774
294 2 0.667666 0.488882 0.527323
278 1 0.904373 0.530636 0.72928
66 1 0.796794 0.73808 0.594472
194 1 0.848501 0.673249 0.805931
88 1 0.699279 0.582745 0.90318
255 1 0.918123 0.710952 0.936903
33 1 0.970594 0.523328 0.877321
126 1 0.774364 0.708465 0.954853
218 1 0.850985 0.562962 0.979983
10 1 0.761329 0.539617 0.759926
84 1 0.875025 0.95553 0.19267
56 1 0.798152 0.916298 0.0719305
93 1 0.868871 0.801244 0.155776
239 1 0.968705 0.94371 0.0730306
247 1 0.735771 0.848296 0.218185
281 1 0.726668 0.76664 0.0800875
338 2 0.841979 0.804698 0.0302684
188 1 0.869247 0.838957 0.302751
161 1 0.878474 0.929568 0.436244
17 1 0.782066 0.803312 0.461053
307 2 0.918424 0.769227 0.451524
282 1 0.704075 0.8865 0.358245
157 1 0.80671 0.982022 0.321862
320 2 0.887451 0.8684 0.549427
162 1 0.811337 0.977368 0.719271
156 1 0.872765 0.993626 0.575604
146 1 0.94686 0.865256 0.657358
311 2 0.772101 0.858445 0.685523
30 1 0.744299 0.895576 0.577913
298 2 0.87743 0.780054 0.731705
222 1 0.718335 0.865473 0.95319
6 1 0.937795 0.952804 0.78296
290 2 0.832662 0.952639 0.87906
143 1 0.912195 0.872044 0.940407
238 1 0.797919 0.828051 0.799143
80 1 0.705682 0.970808 0.829402
105 1 0.971601 0.776035 0.809716
ITEM: TIMESTEP
100000
ITEM: NUMBER OF ATOMS
360
ITEM: BOX BOUNDS pp pp pp
0.0000000000000000e+00 6.6943295008216896e+00
0.0000000000000000e+00 6.6943295008216896e+00
0.0000000000000000e+00 6.6943295008216896e+00
ITEM: ATOMS id type xs ys zs
22 1 0.110854 0.108045 0.162901
251 1 0.257821 0.124737 0.202464
328 2 0.26999 0.218767 0.0978199
83 1 0.044314 0.0134653 0.0560176
193 1 0.222148 0.101942 0.0592709
321 2 0.198043 0.00798599 0.166828
285 1 0.151939 0.234779 0.033373
296 2 0.0400173 0.160296 0.0669409
310 2 0.302863 0.0234857 -0.00643157
96 1 0.294553 0.129931 0.352364
161 1 0.148352 0.0673949 0.302597
31 1 0.0548028 0.210563 0.290342
286 1 0.164126 0.201411 0.408127
344 2 0.181706 0.20808 0.277129
183 1 0.175535 0.0496236 0.475841
162 1 0.0239224 0.124631 0.43962
355 2 0.0772589 -0.00235565 0.414459
267 1 0.291784 0.184723 0.498504
205 1 0.119104 0.175206 0.557606
187 1 0.126961 0.027068 0.649565
117 1 0.0489012 0.178039 0.684671
36 1 0.210882 0.132962 0.72428
250 1 0.263898 0.0701043 0.592369
273 1 0.0668829 0.0891447 0.805409
139 1 0.28144 0.202098 0.958838
269 1 0.0864268 0.116413 0.953997
99 1 0.21793 0.0977914 0.890168
108 1 0.129714 0.230032 0.883003
118 1 0.162609 0.44875 0.228011
241 1 0.257407 0.34392 0.0343236
307 2 0.198548 0.435456 0.114952
79 1 0.304931 0.399057 0.217341
240 1 0.195708 0.310337 0.168638
143 1 0.119932 0.402039 0.0104114
263 1 0.041078 0.398514 0.131235
215 1 0.0352699 0.257997 0.135356
331 2 0.080686 0.317754 0.233693
313 2 0.0791999 0.424288 0.317399
204 1 0.173757 0.342056 0.320675
244 1 0.329322 0.376559 0.364675
19 1 0.0831445 0.453574 0.454753
122 1 0.0425158 0.311909 0.393357
314 2 0.23294 0.303098 0.417052
145 1 0.302383 0.252752 0.253745
8 1 0.234244 0.446077 0.465527
301 2 0.113042 0.2839 0.627493
27 1 0.248096 0.273146 0.639441
135 1 0.200566 0.420539 0.614258
33 1 0.0269637 0.417058 0.628939
236 1 0.145484 0.319043 0.504562
218 1 0.0180993 0.379336 0.890783
210 1 0.259292 0.276157 0.795343
2 1 0.303318 0.423282 0.756236
94 1 0.338851 0.420601 0.906999
43 1 0.183099 0.380112 0.867895
186 1 0.0019232 0.270954 0.991622
28 1 0.11096 0.326304 0.737443
100 1 0.0913054 0.475239 0.770087
274 1 0.286013 0.55736 0.172879
225 1 0.207648 0.706728 0.153451
357 2 0.0886486 0.731896 0.0192625
317 2 0.2949 0.735067 0.057907
18 1 0.133955 0.548308 0.0702472
312 2 0.0217436 0.64896 0.23887
74 1 0.0150615 0.51421 0.225373
232 1 0.0274283 0.642681 0.114436
90 1 0.155197 0.603027 0.246363
279 1 -0.00647705 0.738464 0.465694
182 1 0.107634 0.735932 0.307046
219 1 0.0366564 0.588623 0.354196
224 1 0.286605 0.672396 0.289168
217 1 0.165148 0.606645 0.435377
265 1 0.290334 0.525346 0.324809
303 2 0.175793 0.506796 0.365224
85 1 0.314868 0.711322 0.427295
171 1 0.232328 0.675602 0.565646
166 1 0.115261 0.557935 0.565561
360 2 0.240902 0.533044 0.561683
172 1 0.225219 0.554992 0.68288
351 2 0.0233111 0.535332 0.675398
354 2 0.106623 0.682292 0.512664
6 1 0.105582 0.626232 0.715738
264 1 -0.0114167 0.64338 0.59927
5 1 0.21228 0.556313 0.823979
150 1 0.0884075 0.523653 0.908751
120 1 0.177286 0.719988 0.831037
308 2 0.0414779 0.654755 0.824632
246 1 0.183162 0.654975 0.971711
7 1 0.324524 0.677624 0.794721
234 1 0.0408072 0.651604 0.951792
347 2 0.286706 0.630012 0.904661
134 1 0.241808 0.503287 0.975869
159 1 0.224345 0.87086 0.188841
62 1 0.0722507 0.784174 0.162153
149 1 0.0891368 0.937898 0.194582
208 1 0.178879 0.809724 0.034963
55 1 0.198785 0.956465 0.0497663
348 2 0.0544775 0.867117 0.0100676
270 1 -0.000890853 0.885377 0.41542
202 1 0.12773 0.918249 0.339731
175 1 0.255343 0.830867 0.320323
237 1 0.170776 0.764902 0.437593
63 1 0.310693 0.967891 0.314182
89 1 0.23583 0.901489 0.46605
151 1 0.201482 0.90936 0.631609
324 2 0.233139 0.808058 0.549096
227 1 0.0670136 0.939883 0.536798
1 1 0.0315181 0.910159 0.667038
98 1 0.100885 0.783782 0.589642
75 1 0.201079 0.758871 0.691641
60 1 0.00632377 0.766643 0.737899
252 1 0.0562107 0.80307 0.900386
302 2 0.0668853 0.96552 0.80409
221 1 0.135709 0.857517 0.787253
332 2 0.187847 0.830686 0.906042
101 1 0.102801 0.960886 0.933455
287 1 0.305878 0.848972 0.783419
26 1 0.262608 0.923486 0.914264
253 1 0.304101 0.750343 0.9401
185 1 0.208405 0.984943 0.77327
16 1 0.494234 0.0351883 0.111961
316 2 0.554662 0.0335535 -0.0071602
121 1 0.369029 0.151599 0.0890868
359 2 0.510693 0.138196 0.16703
190 1 0.621152 0.115635 0.104104
277 1 0.59419 0.22404 0.217975
114 1 0.33534 0.00332571 0.12179
41 1 0.506863 0.23877 0.0730988
257 1 0.495323 0.104727 0.399172
309 2 0.540463 0.235051 0.347426
196 1 0.62799 -5.79877e-05 0.421179
50 1 0.337277 0.0282808 0.455867
154 1 0.639236 0.159196 0.369002
288 1 0.448462 0.221404 0.24524
11 1 0.574356 0.244387 0.481579
163 1 0.410766 0.237203 0.413435
335 2 0.601229 0.113916 0.479095
29 1 0.560271 0.047953 0.26061
72 1 0.416311 0.0735703 0.265017
66 1 0.506322 0.0409933 0.666459
178 1 0.487269 0.237529 0.703285
46 1 0.505277 -0.016619 0.524937
87 1 0.614657 0.177346 0.633678
147 1 0.465419 0.129953 0.54636
51 1 0.364425 0.167567 0.657678
170 1 0.65593 0.0399483 0.576186
245 1 0.642531 0.0455053 0.740415
174 1 0.35423 0.0291715 0.731779
47 1 0.63044 0.236012 0.983217
148 1 0.366874 0.0836279 0.900819
34 1 0.502952 0.0823279 0.820386
128 1 0.630219 0.100724 0.920195
127 1 0.487026 0.133434 0.964307
276 1 0.395244 0.174296 0.801453
142 1 0.514274 0.244453 0.873365
333 2 0.589844 0.173451 0.788526
69 1 0.653203 0.372588 0.219904
78 1 0.374373 0.303314 0.125542
54 1 0.514785 0.351146 0.183575
334 2 0.626676 0.294076 0.116495
349 2 0.452785 0.389024 0.0670606
59 1 0.35612 0.471173 0.0855392
76 1 0.516472 0.501725 0.11109
103 1 0.570517 0.369141 -0.00549515
343 2 0.412747 0.346064 0.256664
137 1 0.496588 0.360804 0.338372
115 1 0.46356 0.413606 0.483083
289 2 0.582431 0.366541 0.477381
191 1 0.631484 0.479621 0.418103
322 2 0.409316 0.467512 0.367764
124 1 0.571762 0.484508 0.27823
179 1 0.63763 0.314304 0.359918
53 1 0.424397 0.481997 0.246224
352 2 0.546231 0.370545 0.732957
228 1 0.382888 0.329062 0.650139