ITEM: TIMESTEP
0
ITEM: NUMBER OF ATOMS
360
ITEM: BOX BOUNDS pp pp pp
0.0000000000000000e+00 6.6943295008216896e+00
0.0000000000000000e+00 6.6943295008216896e+00
0.0000000000000000e+00 6.6943295008216896e+00
ITEM: ATOMS id type xs ys zs
164 1 0.289502 0.00966613 0.158111
256 1 0.129443 0.00556296 0.135889
328 2 0.10883 0.134719 0.146247
219 1 0.228369 0.141247 0.116381
142 1 0.0850256 0.123191 0.00810821
309 2 0.199318 0.0591752 0.230211
336 2 0.330891 0.166497 0.190275
277 1 0.0425611 0.249245 0.156017
216 1 0.216909 0.0410241 0.000351629
88 1 0.303443 0.0940696 0.297729
133 1 0.173399 0.0443672 0.372762
233 1 0.32082 0.0954121 0.475043
286 1 0.0459372 0.0534674 0.272523
17 1 0.0330392 0.0642181 0.423489
184 1 0.222777 0.19828 0.404016
260 1 0.0284174 0.203864 0.322871
358 2 0.11672 0.234055 0.466985
181 1 0.168898 0.180571 0.251821
258 1 0.293916 0.24989 0.282651
12 1 0.0769149 0.230967 0.624608
226 1 0.151181 0.0920706 0.519714
62 1 0.267739 0.0724537 0.621042
84 1 0.249456 0.217357 0.545069
319 2 0.129443 0.102102 0.660804
247 1 0.223803 0.199799 0.694256
253 1 0.206516 0.0336419 0.758362
29 1 0.105515 0.00855656 0.882476
182 1 0.152985 0.149575 0.870503
348 2 0.268189 0.0455507 0.874177
229 1 0.0490749 0.136497 0.755287
310 2 0.0317275 0.117165 0.878758
42 1 0.275939 0.201104 0.972765
113 1 0.312712 0.154009 0.815203
264 1 0.0711606 0.398601 0.173177
252 1 0.199473 0.453739 0.232165
324 2 0.279458 0.483596 0.112287
234 1 0.194076 0.307231 0.179478
268 1 0.159704 0.452918 0.0692743
14 1 0.0253269 0.356693 0.0236426
96 1 0.145793 0.2722 0.0367317
227 1 0.0488127 0.488023 0.301685
118 1 0.282221 0.403421 0.353457
257 1 0.130248 0.325585 0.316898
33 1 0.176065 0.348238 0.476303
314 2 0.136168 0.45614 0.38719
53 1 0.00971187 0.343731 0.415314
3 1 0.0854004 0.488982 0.494817
200 1 0.303628 0.411747 0.520694
123 1 0.194676 0.344262 0.632166
209 1 0.0234077 0.366178 0.567937
303 2 0.0888331 0.409494 0.679023
334 2 0.299168 0.318137 0.72203
202 1 0.184016 0.487243 0.610045
51 1 0.127759 0.380412 0.922377
65 1 0.238377 0.292989 0.844488
214 1 0.0580041 0.463729 0.786635
24 1 0.110841 0.299614 0.765531
223 1 0.269566 0.375455 0.990721
93 1 0.198801 0.432976 0.753368
301 2 0.0142019 0.348445 0.83932
137 1 0.0463623 0.250073 0.909261
356 2 0.0593999 0.631906 0.0327892
109 1 0.281829 0.592193 0.171963
345 2 0.318905 0.675819 0.0431796
180 1 0.122966 0.595763 0.148392
13 1 0.119936 0.749262 0.0574598
296 2 0.183681 0.680136 0.226558
144 1 0.0435729 0.738418 0.239385
237 1 0.194326 0.614285 0.0216289
201 1 0.0180405 0.51241 0.0695298
351 2 0.0330278 0.605686 0.243461
40 1 0.246677 0.528179 0.439514
80 1 0.16905 0.576491 0.303607
44 1 0.199866 0.682097 0.448267
155 1 0.0531944 0.643985 0.371497
161 1 0.283063 0.678753 0.313208
87 1 0.105145 0.635966 0.555266
38 1 0.302128 0.713326 0.553469
347 2 0.0679809 0.593374 0.698996
307 2 0.240296 0.592203 0.547294
154 1 0.217934 0.633726 0.657009
294 2 0.116024 0.74516 0.618402
267 1 0.00879017 0.500721 0.625608
205 1 0.324283 0.696141 0.745367
67 1 0.104848 0.524781 0.9326
207 1 0.162018 0.592639 0.807688
56 1 0.0913146 0.676149 0.920634
26 1 0.266568 0.505856 0.898678
116 1 0.305927 0.544912 0.76139
288 1 0.0886623 0.71987 0.754831
32 1 0.0523623 0.882363 0.0583756
104 1 0.210791 0.890795 0.100906
359 2 0.143908 0.803983 0.174913
8 1 0.263043 0.751644 0.154533
157 1 0.0675861 0.896815 0.245332
340 2 0.108789 0.975098 0.00383985
58 1 0.221759 0.912951 0.263688
280 1 0.168728 0.7717 0.316409
342 2 0.30569 0.799884 0.269494
43 1 0.103728 0.915048 0.386295
175 1 0.296461 0.800013 0.423127
39 1 0.245938 0.952731 0.485158
343 2 0.0976955 0.753147 0.414692
244 1 0.0671217 0.967048 0.545266
274 1 0.0401724 0.84915 0.667852
150 1 0.221972 0.786365 0.671845
352 2 0.29242 0.947456 0.673368
63 1 0.180246 0.929981 0.632168
242 1 0.161593 0.811225 0.517011
291 2 0.27469 0.839819 0.551637
73 1 0.0560091 0.992832 0.703454
165 1 0.00309569 0.760238 0.539491
64 1 0.153335 0.874767 0.779801
230 1 0.240772 0.918011 0.895978
278 1 0.260819 0.771044 0.977188
11 1 0.11101 0.829618 0.924054
120 1 0.322063 0.862289 0.762023
263 1 0.0140773 0.893983 0.816077
103 1 0.220203 0.75189 0.837307
192 1 0.527493 0.119888 0.108748
143 1 0.363345 0.106041 0.0534374
275 1 0.447407 0.0642437 0.241573
298 2 0.415368 0.00731142 0.126289
186 1 0.447384 0.225691 0.217616
325 2 0.586505 0.228715 0.185024
6 1 0.637468 0.214051 0.0400128
36 1 0.486474 0.00970876 0.0131988
330 2 0.521612 0.0689477 0.336494
124 1 0.434179 0.175727 0.365466
153 1 0.608667 0.151662 0.398611
189 1 0.456707 0.0140353 0.448535
322 2 0.552712 0.216228 0.311219
114 1 0.610868 0.1205 0.254101
279 1 0.618233 0.221204 0.55201
276 1 0.528122 0.0216729 0.689795
2 1 0.558149 0.0742035 0.544867
198 1 0.558589 0.18327 0.691655
149 1 0.392495 0.147737 0.664798
243 1 0.447216 0.188676 0.528574
72 1 0.474555 0.11686 0.802026
1 1 0.379598 0.0522136 0.917081
225 1 0.490692 0.169402 0.94653
287 1 0.620699 0.0766277 0.965567
323 2 0.640081 0.208586 0.902905
167 1 0.355623 0.0179016 0.767504
122 1 0.630241 0.0965843 0.810547
174 1 0.523717 0.366079 0.197553
208 1 0.417165 0.40876 0.0553859
128 1 0.33833 0.405683 0.200102
285 1 0.488066 0.261417 0.0736576
195 1 0.345403 0.266231 0.11063
169 1 0.42321 0.34358 0.335853
183 1 0.649947 0.299298 0.273934
295 2 0.556956 0.376685 0.333724
9 1 0.539393 0.305797 0.43936
99 1 0.560463 0.461193 0.437642
248 1 0.348587 0.28102 0.446321
156 1 0.405031 0.475215 0.427218
269 1 0.659249 0.462823 0.282897
102 1 0.457584 0.399363 0.550017
7 1 0.519766 0.361943 0.690036
101 1 0.370112 0.284748 0.609398
331 2 0.511805 0.279377 0.600274
98 1 0.626724 0.384094 0.57077
317 2 0.539938 0.477812 0.601397
246 1 0.338321 0.421822 0.670783
18 1 0.624817 0.485939 0.69224
95 1 0.664471 0.300496 0.697262
315 2 0.375222 0.44829 0.946695
79 1 0.40253 0.297287 0.92603
138 1 0.55048 0.36942 0.981972
197 1 0.498278 0.417742 0.826789
100 1 0.339618 0.400917 0.824755
266 1 0.407706 0.27721 0.774571
239 1 0.551985 0.253282 0.819333
83 1 0.656967 0.388393 0.81915
141 1 0.547634 0.663524 0.0783713
4 1 0.439002 0.539264 0.167349
210 1 0.364238 0.554778 0.0229912
129 1 0.404216 0.70203 0.128803
45 1 0.60057 0.512246 0.164536
105 1 0.591108 0.646737 0.242415
30 1 0.527714 0.511427 0.0118325
350 2 0.64662 0.600856 0.000850989
159 1 0.516114 0.654196 0.382842
241 1 0.630914 0.682805 0.485566
170 1 0.372974 0.637661 0.427425
71 1 0.419781 0.653817 0.269693
68 1 0.652293 0.574748 0.375178
178 1 0.33559 0.529579 0.302075
25 1 0.502267 0.522986 0.299761
220 1 0.458809 0.656391 0.654247
293 2 0.58652 0.59898 0.640646
91 1 0.509668 0.577957 0.533707
271 1 0.482971 0.733438 0.523623
251 1 0.602152 0.729715 0.623804
171 1 0.46006 0.513508 0.705472
177 1 0.365433 0.563898 0.576037
217 1 0.455337 0.554176 0.87563
77 1 0.61855 0.528598 0.88652
35 1 0.564975 0.680864 0.928354
332 2 0.435002 0.617931 0.77457
284 1 0.459672 0.73543 0.825343
126 1 0.568827 0.626594 0.76682
140 1 0.337898 0.649196 0.912959
329 2 0.458201 0.629461 0.989428
283 1 0.47566 0.864049 0.0934859
185 1 0.389632 0.906717 0.210462
60 1 0.345577 0.961256 0.0326759
132 1 0.612751 0.910751 0.0182592
54 1 0.50276 0.786558 0.234012
19 1 0.538807 0.97186 0.167224
338 2 0.345925 0.832481 0.0720609
146 1 0.625573 0.792168 0.142665
335 2 0.557306 0.779428 0.0304865
135 1 0.65367 0.897424 0.246649
112 1 0.503267 0.931761 0.315113
191 1 0.554034 0.862243 0.457716
52 1 0.334515 0.934511 0.356194
218 1 0.392348 0.882656 0.491922
190 1 0.421335 0.774742 0.355762
240 1 0.615141 0.774126 0.334235
48 1 0.611044 0.989236 0.412212
37 1 0.384345 0.806019 0.640891
232 1 0.536443 0.863272 0.621212
353 2 0.503431 0.772047 0.699763
302 2 0.659432 0.854802 0.672712
108 1 0.650963 0.943143 0.562739
187 1 0.40153 0.984868 0.614211
333 2 0.5094 0.962104 0.556818
78 1 0.550461 0.838466 0.906589
162 1 0.619047 0.928767 0.757687
249 1 0.39119 0.891279 0.899425
354 2 0.634591 0.964437 0.890291
136 1 0.611051 0.77935 0.770973
163 1 0.465659 0.888369 0.764263
74 1 0.424312 0.7561 0.97854
355 2 0.344406 0.775087 0.853545
250 1 0.518682 0.986105 0.861142
20 1 0.895445 0.222582 0.203544
59 1 0.729514 0.189318 0.188059
305 2 0.840017 0.109287 0.193424
259 1 0.975683 0.107122 0.148312
23 1 0.840721 0.0909388 0.064736
304 2 0.721106 0.121644 0.0327156
131 1 0.80909 0.234202 0.0594031
5 1 0.67071 0.0280537 0.119282
212 1 0.786414 0.00071097 0.227125
289 2 0.939534 0.211903 0.0739745
70 1 0.976616 0.0103389 0.015244
90 1 0.756706 0.143466 0.337783
115 1 0.90812 0.0917857 0.321697
179 1 0.860078 0.133148 0.464679
213 1 0.705709 0.0863138 0.495996
270 1 0.984334 0.211233 0.492733
306 2 0.690873 0.0218551 0.308267
211 1 0.74987 0.239979 0.468377
262 1 0.881605 0.247403 0.363209
168 1 0.794599 0.00110706 0.388508
151 1 0.829689 0.0334477 0.587715
86 1 0.924685 0.197956 0.637444
206 1 0.763279 0.182167 0.606861
299 2 0.933884 0.0791518 0.700816
10 1 0.677013 0.0694073 0.643125
349 2 0.691387 0.176693 0.723722
199 1 0.975545 0.0762658 0.577942
81 1 0.827733 0.122515 0.737942
47 1 0.944875 0.0517448 0.840851
134 1 0.774391 0.118183 0.896583
50 1 0.91689 0.228763 0.813522
236 1 0.934325 0.148414 0.957463
193 1 0.742451 0.242266 0.829245
311 2 0.763688 0.368912 0.0601829
222 1 0.791762 0.332478 0.243206
148 1 0.681149 0.466049 0.0243962
160 1 0.897694 0.370397 0.11537
321 2 0.924767 0.44068 0.0242889
139 1 0.764294 0.466234 0.151499
215 1 0.673629 0.334374 0.126577
357 2 0.735679 0.476691 0.39329
316 2 0.752794 0.278665 0.351292
27 1 0.842078 0.406896 0.392288
85 1 0.687191 0.360917 0.419
318 2 0.960243 0.453328 0.379901
97 1 0.95504 0.366168 0.27225
339 2 0.839277 0.449217 0.276915
172 1 0.770783 0.442996 0.669714
327 2 0.764367 0.305206 0.576653
106 1 0.823972 0.289358 0.696879
111 1 0.961498 0.340074 0.72233
360 2 0.890207 0.417685 0.616435
261 1 0.883991 0.315416 0.52974
147 1 0.773405 0.431991 0.52881
235 1 0.921316 0.474957 0.509607
203 1 0.905282 0.490925 0.743663
255 1 0.833119 0.37514 0.821749
238 1 0.695267 0.327689 0.947517
75 1 0.954631 0.444928 0.894761
245 1 0.899479 0.306159 0.945264
34 1 0.813166 0.440036 0.961353
204 1 0.863054 0.532412 0.0623275
292 2 0.828387 0.600743 0.181451
49 1 0.979253 0.648969 0.136367
176 1 0.752739 0.71771 0.209134
224 1 0.707117 0.617094 0.116581
130 1 0.837016 0.678437 0.0566621
281 1 0.940585 0.503576 0.198401
94 1 0.68052 0.735257 0.0143051
28 1 0.892322 0.690525 0.261655
152 1 0.768707 0.570703 0.286952
272 1 0.806615 0.574955 0.468026
173 1 0.760211 0.698572 0.380899
326 2 0.907725 0.675243 0.401709
46 1 0.922913 0.562154 0.34534
16 1 0.971838 0.615294 0.493179
282 1 0.975141 0.661476 0.66168
320 2 0.744602 0.659703 0.549243
145 1 0.85365 0.572067 0.617572
22 1 0.855479 0.716576 0.529937
265 1 0.713201 0.621426 0.673499
290 2 0.83363 0.718013 0.648846
196 1 0.668477 0.532008 0.551785
158 1 0.76378 0.582492 0.953881
57 1 0.950269 0.612954 0.952458
31 1 0.748885 0.537389 0.800696
300 2 0.870453 0.548267 0.871347
92 1 0.82586 0.741933 0.912582
166 1 0.840684 0.658365 0.761479
55 1 0.7014 0.68453 0.844219
107 1 0.983537 0.60064 0.803813
117 1 0.972933 0.748348 0.864618
127 1 0.747733 0.900458 0.115738
82 1 0.898223 0.798109 0.148921
66 1 0.925612 0.947419 0.168426
61 1 0.881572 0.895011 0.0227012
337 2 0.766835 0.77464 0.104279
188 1 0.974309 0.750444 0.00976016
89 1 0.987265 0.786093 0.372722
221 1 0.801965 0.84786 0.258936
69 1 0.940666 0.941202 0.326084
231 1 0.848486 0.835873 0.414464
228 1 0.707179 0.868244 0.428228
341 2 0.997531 0.875061 0.466251
15 1 0.913755 0.964559 0.481607
297 2 0.93134 0.820938 0.267433
346 2 0.953957 0.956012 0.61194
125 1 0.735897 0.790094 0.572177
76 1 0.765157 0.92229 0.67065
273 1 0.873769 0.854021 0.587954
308 2 0.798784 0.922025 0.509427
254 1 0.761542 0.796174 0.743753
119 1 0.899724 0.961999 0.727225
194 1 0.908226 0.797617 0.728659
344 2 0.979189 0.89119 0.93547
110 1 0.856896 0.889256 0.86138
121 1 0.703877 0.830806 0.882529
41 1 0.750382 0.97066 0.971282
21 1 0.746869 0.978307 0.81466
312 2 0.764871 0.838657 0.989263
313 2 0.865572 0.999925 0.939628
ITEM: TIMESTEP
300000
ITEM: NUMBER OF ATOMS
360
ITEM: BOX BOUNDS pp pp pp
0.0000000000000000e+00 6.6943295008216896e+00
0.0000000000000000e+00 6.6943295008216896e+00
0.0000000000000000e+00 6.6943295008216896e+00
ITEM: ATOMS id type xs ys zs
277 1 0.148397 0.189056 0.0439725
256 1 0.191403 0.0337772 0.0493565
216 1 0.299133 0.189961 0.0832567
42 1 0.216071 0.110497 0.197049
142 1 0.0258609 0.0899029 0.0971135
258 1 0.0536485 0.145535 0.247261
200 1 0.159252 0.2191 0.337754
88 1 0.148396 0.0479377 0.32926
184 1 0.316468 0.234239 0.250005
270 1 0.0228533 0.150122 0.400868
12 1 0.199921 0.115845 0.465899
309 2 0.257436 0.12764 0.31602
327 2 0.0854569 0.244081 0.448417
43 1 0.299028 0.0103499 0.391021
179 1 0.000858729 0.00199996 0.286553
150 1 0.0560212 0.00337327 0.43857
64 1 0.159818 0.0611368 0.659143
111 1 0.117411 0.210504 0.583012
167 1 0.297567 0.00860223 0.684047
248 1 0.258857 0.171293 0.634804
322 2 0.104293 0.041483 0.548148
319 2 0.0448942 0.120453 0.661813
73 1 0.120503 0.24695 0.741911
244 1 0.00297781 0.00410207 0.676763
324 2 0.203402 0.124452 0.944367
113 1 0.220668 0.138516 0.788205
86 1 0.0628051 0.115336 0.79476
96 1 0.0733835 0.0753541 0.95219
100 1 0.276377 0.228919 0.929846
24 1 0.129427 0.220941 0.90051
205 1 0.326891 0.0652115 0.940343
348 2 0.30722 0.0364404 0.815414
253 1 0.192855 0.0060715 0.876894
137 1 0.23566 0.325759 0.0667231
234 1 0.136033 0.407364 0.146557
264 1 0.030131 0.256214 0.122999
180 1 0.197199 0.471355 0.00193122
318 2 0.273276 0.353744 0.191105
208 1 0.178462 0.256568 0.190003
182 1 0.0908673 0.343016 0.00759448
330 2 0.206524 0.476394 0.382328
252 1 0.117376 0.467671 0.279843
159 1 0.106668 0.366291 0.427433
3 1 0.231026 0.363997 0.32765
260 1 0.210545 0.269819 0.482649
181 1 0.0218776 0.293912 0.319955
329 2 0.127378 0.346539 0.26103
261 1 0.0726571 0.382673 0.593565
123 1 0.229873 0.331685 0.631492
294 2 0.313446 0.400643 0.705943
118 1 0.228224 0.434001 0.500307
26 1 0.0241318 0.371704 0.744813
65 1 0.204719 0.362711 0.897827
93 1 0.0813149 0.454622 0.904471
346 2 0.0751843 0.336003 0.853534
226 1 0.278575 0.286452 0.785126
207 1 0.173322 0.403464 0.755285
16 1 0.026712 0.580037 0.202515
185 1 0.321875 0.660204 0.0723609
188 1 0.0982421 0.688884 0.109648
80 1 0.252493 0.684952 0.211772
278 1 0.193468 0.553575 0.124954
334 2 0.32853 0.579811 0.182632
358 2 0.152903 0.600657 0.243774
257 1 0.0561715 0.515197 0.0583332
199 1 0.0966953 0.515276 0.486937
155 1 0.0790915 0.709117 0.268042
104 1 0.165626 0.61078 0.371205
178 1 0.263998 0.676316 0.481571
4 1 0.254731 0.52225 0.261416
235 1 0.0143782 0.589062 0.361274
209 1 0.237591 0.66186 0.638641
303 2 0.178172 0.59844 0.745788
237 1 0.0411349 0.649045 0.658246
202 1 0.156391 0.511161 0.640849
170 1 0.296191 0.522416 0.708376
301 2 0.203879 0.554579 0.531459
154 1 0.123439 0.665625 0.513554
307 2 0.143761 0.739813 0.687815
13 1 0.149662 0.700739 0.80813
51 1 0.198598 0.530461 0.861584
67 1 0.0537655 0.60564 0.924898
197 1 0.19463 0.640764 0.984068
140 1 0.28589 0.646312 0.829741
272 1 0.0546442 0.537216 0.75598
29 1 0.113042 0.835263 0.188653
289 2 0.158819 0.904026 0.07137
164 1 0.227583 0.782365 0.0881316
143 1 0.259478 0.915598 0.153922
356 2 0.0494917 0.820766 0.0477929
359 2 0.272326 0.827779 0.241604
32 1 0.113982 0.982959 0.173292
340 2 0.28739 0.998073 0.244533
63 1 0.10527 0.840028 0.448271
314 2 0.179312 0.95032 0.427666
280 1 0.266129 0.853934 0.446805
286 1 0.0216667 0.856512 0.316979
157 1 0.207892 0.91565 0.305952
44 1 0.201782 0.763234 0.345376
103 1 0.0664364 0.917522 0.577124
120 1 0.230776 0.968743 0.543641
161 1 0.172225 0.812837 0.592235
56 1 0.175754 0.91293 0.707308
353 2 0.288259 0.871584 0.632112
274 1 0.0238356 0.772784 0.575499
110 1 0.0541991 0.814893 0.731219
217 1 0.269116 0.781061 0.7419
220 1 0.330609 0.770398 0.588975
254 1 0.0578086 0.960075 0.808935
11 1 0.175957 0.850061 0.843526
337 2 0.0368358 0.834169 0.86922
82 1 0.0979917 0.904516 0.968103
126 1 0.323148 0.890966 0.835555
230 1 0.278942 0.771794 0.939488
288 1 0.0940396 0.75089 0.952786
8 1 0.277551 0.913018 0.981245
58 1 0.51139 0.0197147 0.166862
192 1 0.504091 0.0727957 0.0182017
249 1 0.452096 0.169648 0.145958
6 1 0.610891 0.1663 0.0970224
19 1 0.358556 0.0262723 0.0871325
321 2 0.663715 0.213228 0.23021
41 1 0.630505 0.0175494 0.0586726
198 1 0.577977 0.132494 0.434956
9 1 0.457393 0.216144 0.310748
291 2 0.453388 0.154934 0.496898
153 1 0.576563 0.123397 0.269546
275 1 0.443291 0.0651548 0.40409
156 1 0.390235 0.0817492 0.25583
62 1 0.345192 0.177532 0.406928
72 1 0.419817 0.12718 0.674843
354 2 0.617122 0.202208 0.70445
187 1 0.52937 0.206999 0.588538
233 1 0.644931 0.0686264 0.554603
149 1 0.480443 0.0425078 0.552889
247 1 0.569699 0.0906734 0.705405
101 1 0.33668 0.0837544 0.532093
250 1 0.540711 0.0573767 0.860232
285 1 0.568179 0.193428 0.9343
1 1 0.380263 0.159029 0.819043
124 1 0.520761 0.208738 0.775144
195 1 0.42021 0.190586 0.986943
312 2 0.649146 0.0203703 0.797186
163 1 0.435984 0.00290139 0.763204
225 1 0.657421 0.150815 0.829821
14 1 0.400997 0.31609 0.128721
338 2 0.4369 0.44573 0.0454899
138 1 0.487888 0.437956 0.164464
114 1 0.553485 0.287596 0.195907
210 1 0.534007 0.314424 0.0278446
186 1 0.649746 0.400579 0.158216
269 1 0.586301 0.476147 0.0449263
129 1 0.341031 0.463146 0.137229
174 1 0.575502 0.433249 0.292766
17 1 0.480538 0.274062 0.452257
25 1 0.34094 0.324505 0.416654
304 2 0.513164 0.339779 0.337883
175 1 0.484832 0.43408 0.438425
59 1 0.615123 0.264879 0.367028
109 1 0.388887 0.377183 0.275126
152 1 0.651753 0.393143 0.447516
38 1 0.336582 0.48108 0.405906
300 2 0.595934 0.273338 0.498815
102 1 0.525046 0.379666 0.576687
246 1 0.403374 0.296384 0.701867
266 1 0.572756 0.344425 0.719467
71 1 0.363014 0.417839 0.560653
317 2 0.578494 0.462673 0.657498
177 1 0.449641 0.470797 0.680666
169 1 0.369836 0.258701 0.55721
332 2 0.476936 0.388277 0.788951
79 1 0.439377 0.2966 0.862021
158 1 0.607282 0.322431 0.86825
30 1 0.488483 0.434764 0.911475
223 1 0.355238 0.360561 0.984857
116 1 0.35658 0.430946 0.835998
83 1 0.56918 0.482149 0.789194
279 1 0.566846 0.566394 0.192319
146 1 0.610171 0.6484 0.0707107
60 1 0.458389 0.567703 0.0854872
74 1 0.590623 0.731597 0.21199
284 1 0.43011 0.664666 0.201919
342 2 0.629826 0.627319 0.292643
128 1 0.570065 0.557057 0.385731
141 1 0.430882 0.533096 0.281136
241 1 0.432817 0.58964 0.451315
173 1 0.503606 0.686841 0.332257
228 1 0.333718 0.643712 0.331539
212 1 0.659939 0.730106 0.356951
45 1 0.571961 0.669919 0.498896
136 1 0.37317 0.666632 0.687853
91 1 0.510868 0.599116 0.634788
326 2 0.427824 0.675634 0.565519
125 1 0.62947 0.726817 0.630222
196 1 0.612769 0.524762 0.528786
99 1 0.343004 0.556015 0.568503
18 1 0.657468 0.567017 0.681143
331 2 0.478068 0.51429 0.551252
166 1 0.574102 0.592283 0.919122
77 1 0.418354 0.580291 0.824105
35 1 0.435287 0.664133 0.964249
355 2 0.556144 0.704371 0.976854
268 1 0.347185 0.52229 0.973745
251 1 0.541808 0.647839 0.775308
191 1 0.405458 0.747992 0.814833
298 2 0.480614 0.809523 0.204886
127 1 0.593589 0.877817 0.146487
5 1 0.466185 0.909869 0.0639538
283 1 0.494661 0.753744 0.0799606
52 1 0.363557 0.810091 0.12859
219 1 0.404242 0.923889 0.233147
54 1 0.637741 0.978696 0.249532
218 1 0.424041 0.922857 0.398809
308 2 0.512474 0.996225 0.296937
48 1 0.545728 0.854947 0.307193
240 1 0.358201 0.797216 0.323389
68 1 0.560305 0.818718 0.44803
84 1 0.581927 0.985073 0.400848
112 1 0.421706 0.753196 0.459577
108 1 0.52435 0.936493 0.646991
78 1 0.525986 0.797909 0.726891
271 1 0.389953 0.864956 0.697098
302 2 0.642391 0.849467 0.692174
352 2 0.513598 0.925166 0.507818
39 1 0.383491 0.92628 0.557223
190 1 0.486338 0.803616 0.579647
2 1 0.65096 0.900105 0.545658
36 1 0.437688 0.968985 0.926965
37 1 0.416298 0.821354 0.958447
335 2 0.455854 0.870383 0.833857
162 1 0.569855 0.920595 0.809436
336 2 0.55475 0.966028 0.972021
132 1 0.542642 0.769601 0.875539
47 1 0.589308 0.845128 0.991813
313 2 0.947687 0.0397809 0.0106038
119 1 0.864592 0.13505 0.0675208
20 1 0.716815 0.0890526 0.190682
316 2 0.938998 0.138738 0.16851
341 2 0.754336 0.047955 0.0736558
236 1 0.744816 0.228369 0.125874
66 1 0.893321 0.014338 0.159368
222 1 0.906056 0.0131993 0.411347
189 1 0.722726 0.214698 0.469543
115 1 0.895853 0.113804 0.284028
53 1 0.861963 0.145292 0.443248
90 1 0.751772 0.167892 0.33074
213 1 0.736744 0.0400315 0.441243
295 2 0.68093 0.0604024 0.332889
315 2 0.770464 0.129851 0.536643
211 1 0.848525 0.214855 0.592398
238 1 0.723632 0.131543 0.692178
22 1 0.842084 0.0477755 0.605329
21 1 0.909827 0.130327 0.72779
81 1 0.979489 0.113671 0.544813
323 2 0.819258 0.221095 0.704699
345 2 0.938486 0.0244297 0.791293
122 1 0.777337 0.0534274 0.823537
50 1 0.808256 0.20296 0.857424
273 1 0.903837 0.0999209 0.908631
92 1 0.723732 0.124615 0.979946
311 2 0.68902 0.245934 0.910414
75 1 0.977883 0.233724 0.832069
229 1 0.977242 0.211666 0.985382
97 1 0.983441 0.409324 0.211136
227 1 0.946697 0.388153 0.0577786
131 1 0.876918 0.258974 0.214537
139 1 0.797533 0.377568 0.145727
344 2 0.89145 0.276299 0.0909375
215 1 0.682148 0.334237 0.0226871
33 1 0.869334 0.272466 0.355589
151 1 0.96143 0.277906 0.488247
40 1 0.963208 0.436227 0.375904
333 2 0.746354 0.314967 0.402434
98 1 0.796628 0.430944 0.3878
27 1 0.731003 0.327808 0.280124
148 1 0.73912 0.492164 0.255589
325 2 0.863432 0.387605 0.275123
310 2 0.913812 0.450424 0.723671
7 1 0.68225 0.41371 0.600382
357 2 0.777649 0.344999 0.645279
351 2 0.982105 0.412857 0.503509
206 1 0.908497 0.374417 0.613826
262 1 0.795357 0.343501 0.517901
95 1 0.823368 0.498425 0.646114
193 1 0.989328 0.250305 0.664172
339 2 0.750558 0.479268 0.516112
172 1 0.675504 0.260228 0.602864
85 1 0.881794 0.499064 0.512763
70 1 0.826078 0.270804 0.986316
160 1 0.952332 0.377463 0.904119
245 1 0.764676 0.350295 0.880166
34 1 0.667762 0.467903 0.911825
255 1 0.831637 0.487578 0.836244
239 1 0.713046 0.4454 0.751282
10 1 0.867262 0.331026 0.750025
183 1 0.791522 0.445312 0.997791
276 1 0.714174 0.275021 0.757315
350 2 0.695564 0.650486 0.167299
224 1 0.887547 0.512621 0.112109
204 1 0.729194 0.539045 0.108428
130 1 0.824043 0.687285 0.130873
49 1 0.955426 0.643973 0.0510353
292 2 0.845557 0.73129 0.0113664
46 1 0.893022 0.524193 0.266615
105 1 0.71723 0.554871 0.418021
165 1 0.867755 0.606121 0.401673
176 1 0.775072 0.652732 0.283555
343 2 0.753762 0.677065 0.41466
242 1 0.927776 0.699744 0.269148
87 1 0.992549 0.730365 0.414607
320 2 0.895424 0.610008 0.617838
267 1 0.923026 0.735923 0.673833
171 1 0.782963 0.687376 0.688362
231 1 0.769263 0.62288 0.546161
147 1 0.981376 0.619479 0.517787
360 2 0.778458 0.563124 0.748014
282 1 0.864 0.747596 0.523454
106 1 0.988925 0.51481 0.628198
57 1 0.812079 0.6036 0.973062
347 2 0.923852 0.630585 0.903245
31 1 0.70259 0.606559 0.841194
214 1 0.907821 0.59311 0.755545
299 2 0.97647 0.513694 0.849706
145 1 0.68884 0.716853 0.944154
203 1 0.832096 0.704858 0.849167
201 1 0.930124 0.511651 0.965999
194 1 0.989162 0.714583 0.828267
55 1 0.66962 0.737511 0.787062
296 2 0.687783 0.567199 0.986195
144 1 0.97379 0.77607 0.152473
168 1 0.748059 0.932743 0.158744
221 1 0.858452 0.843578 0.0897463
135 1 0.744935 0.802063 0.241926
297 2 0.702256 0.906744 0.0381866
94 1 0.707059 0.771551 0.0802659
28 1 0.990627 0.930114 0.0692137
328 2 0.993951 0.902646 0.203948
259 1 0.877105 0.865975 0.241524
305 2 0.844428 0.91178 0.372512
133 1 0.830289 0.774373 0.381241
69 1 0.706474 0.880459 0.36622
263 1 0.941412 0.8669 0.451028
23 1 0.787429 0.997466 0.304649
232 1 0.754378 0.838508 0.641319
117 1 0.909514 0.872418 0.607317
243 1 0.690582 0.981237 0.681515
15 1 0.800611 0.912842 0.505022
76 1 0.845657 0.953783 0.724559
349 2 0.94756 0.983612 0.551668
89 1 0.717032 0.755707 0.500863
281 1 0.947108 0.803491 0.963869
107 1 0.790062 0.840524 0.948336
265 1 0.900426 0.842274 0.814238
287 1 0.732603 0.887691 0.804876
306 2 0.830022 0.945664 0.866386
61 1 0.945889 0.954357 0.913204
121 1 0.67154 0.963886 0.918301
293 2 0.793681 0.792937 0.755526
134 1 0.828653 0.985142 0.996216
290 2 0.668157 0.834963 0.893686
ITEM: TIMESTEP
600000
ITEM: NUMBER OF ATOMS
360
ITEM: BOX BOUNDS pp pp pp
0.0000000000000000e+00 6.6943295008216896e+00
0.0000000000000000e+00 6.6943295008216896e+00
0.0000000000000000e+00 6.6943295008216896e+00
ITEM: ATOMS id type xs ys zs
66 1 0.124655 0.0751284 0.134499
42 1 0.280193 0.0801274 0.0810691
142 1 0.0724899 0.218224 0.120113
264 1 0.221048 0.202587 0.174136
143 1 0.266699 0.0697507 0.239929
43 1 0.211372 0.04443 0.400079
156 1 0.18553 0.179855 0.324274
258 1 0.0285203 0.137422 0.286763
322 2 0.0870004 0.0910404 0.386161
200 1 0.00586076 0.155964 0.470159
32 1 0.120639 0.0194454 0.270817
316 2 0.056467 0.233813 0.375453
359 2 0.295733 0.000969224 0.489092
120 1 0.247177 0.075174 0.584031
73 1 0.200086 0.142647 0.708973
260 1 0.0620542 0.131767 0.635697
71 1 0.291776 0.231823 0.598058
78 1 0.129925 0.00851925 0.67917
118 1 0.0969732 0.0457849 0.516537
205 1 0.264401 0.0135351 0.745351
123 1 0.1727 0.193656 0.487493
19 1 0.258621 0.123014 0.858272
96 1 0.130459 0.211303 0.853125
346 2 0.00517905 0.224997 0.928924
349 2 0.015422 0.0335989 0.916685
64 1 0.130713 0.052233 0.836848
312 2 0.320356 0.243699 0.88903
229 1 0.0713072 0.126782 0.981527
24 1 0.323585 0.24307 0.754448
277 1 0.230532 0.206332 0.994562
345 2 0.0634514 0.130074 0.76619
257 1 0.0533039 0.455173 0.0290078
65 1 0.198674 0.479157 0.230073
180 1 0.137345 0.349779 0.140659
289 2 0.0909461 0.471796 0.1523
182 1 0.239107 0.391031 0.00339069
223 1 0.309646 0.333483 0.141239
129 1 0.29704 0.489643 0.105573
159 1 0.150057 0.329868 0.391402
99 1 0.311508 0.292988 0.430076
216 1 0.259924 0.341413 0.293533
104 1 0.154184 0.476623 0.382963
318 2 0.268375 0.414733 0.432393
329 2 0.127507 0.388782 0.277368
252 1 0.0589819 0.401137 0.488745
33 1 0.00574205 0.381382 0.346301
181 1 0.0629703 0.276625 0.2571
202 1 0.201123 0.35279 0.528865
226 1 0.0505905 0.412467 0.637941
207 1 0.180086 0.314688 0.694931
244 1 0.0486541 0.271681 0.56947
77 1 0.331331 0.398703 0.729952
26 1 0.0291576 0.257328 0.732587
170 1 0.213993 0.457102 0.649652
75 1 0.224876 0.312749 0.85117
217 1 0.15496 0.445289 0.79857
311 2 0.0864685 0.424515 0.90923
119 1 0.105947 0.300521 0.97652
310 2 0.269398 0.450228 0.877079
299 2 0.0432063 0.39769 0.774135
155 1 0.171468 0.554945 0.088453
235 1 0.279715 0.631579 0.177666
197 1 0.291473 0.620478 0.0101236
29 1 0.13969 0.688473 0.170983
137 1 0.0117116 0.572905 0.129593
224 1 0.00266397 0.715256 0.0667637
154 1 0.189735 0.61798 0.316611
306 2 0.255423 0.606526 0.445548
87 1 0.0655092 0.634903 0.418225
178 1 0.316544 0.523628 0.358184
188 1 0.0351186 0.718987 0.290587
242 1 0.0601623 0.545253 0.278851
56 1 0.179735 0.685907 0.699261
220 1 0.0549348 0.674032 0.622902
227 1 0.0977571 0.548077 0.701773
136 1 0.2894 0.63263 0.589174
330 2 0.176171 0.579009 0.608661
51 1 0.0806888 0.54867 0.540598
209 1 0.246121 0.501107 0.517089
48 1 0.163998 0.685889 0.52017
11 1 0.341146 0.685921 0.730278
164 1 0.176893 0.531031 0.937176
82 1 0.107161 0.635916 0.83166
126 1 0.257037 0.555668 0.791708
278 1 0.261023 0.690603 0.875747
288 1 0.0117614 0.589253 0.959887
255 1 0.00428752 0.506939 0.837523
253 1 0.14496 0.675295 0.9846
28 1 0.104367 0.848575 0.0735055
309 2 0.239742 0.890646 0.0244207
256 1 0.22373 0.933633 0.152232
144 1 0.121509 0.840564 0.240448
328 2 0.0815316 0.941109 0.153823
94 1 0.0115184 0.972724 0.049126
37 1 0.245495 0.766538 0.0739207
52 1 0.270555 0.776422 0.235906
265 1 0.166286 0.994353 0.0014717
12 1 0.115346 0.925252 0.407964
88 1 0.232655 0.914269 0.303681
150 1 0.184894 0.77413 0.37079
352 2 0.300202 0.80895 0.37393
326 2 0.220272 0.815157 0.498006
280 1 0.338336 0.880394 0.46489
157 1 0.0460179 0.783058 0.49155
314 2 0.0735591 0.920826 0.540795
319 2 0.213193 0.900477 0.679827
167 1 0.203877 0.927795 0.543381
271 1 0.127648 0.815148 0.622714
190 1 0.286158 0.79692 0.61477
161 1 0.00183559 0.903164 0.659208
173 1 0.341456 0.943977 0.616299
267 1 0.0302636 0.782681 0.749117
254 1 0.183613 0.815399 0.932296
113 1 0.255348 0.96032 0.881607
221 1 0.0591134 0.901123 0.911502
307 2 0.150803 0.756226 0.807454
86 1 0.139191 0.892659 0.789164
162 1 0.299861 0.82341 0.789688
13 1 0.0269193 0.738131 0.91526
195 1 0.408267 0.0279643 0.138942
14 1 0.390054 0.184693 0.132255
6 1 0.523291 0.142326 0.0803168
333 2 0.563283 0.0448726 0.149002
285 1 0.645331 0.140663 0.184501
153 1 0.497955 0.161107 0.244703
304 2 0.559133 0.233609 0.162123
218 1 0.624385 0.237356 0.290781
249 1 0.48188 0.103139 0.381625
308 2 0.600941 0.081291 0.296131
302 2 0.556305 0.0495962 0.486995
275 1 0.6208 0.141022 0.420404
184 1 0.32564 0.148649 0.448031
240 1 0.351108 0.00191414 0.366675
321 2 0.389879 0.097419 0.281629
62 1 0.469972 0.255223 0.386184
219 1 0.340866 0.212602 0.28429
100 1 0.560044 0.170414 0.717236
169 1 0.487044 0.151122 0.528644
248 1 0.373506 0.104338 0.699774
348 2 0.370657 0.111674 0.561335
233 1 0.644084 0.0857481 0.565709
72 1 0.517465 0.0452815 0.628929
300 2 0.39098 0.251556 0.516675
211 1 0.59744 0.233892 0.580525
187 1 0.439872 0.247018 0.64219
9 1 0.364831 0.13769 0.975991
124 1 0.518405 0.116576 0.931347
294 2 0.57084 0.223047 0.857903
36 1 0.406767 0.0464382 0.834147
116 1 0.449019 0.19481 0.826059
10 1 0.656542 0.16432 0.975797
247 1 0.551036 0.0201963 0.794635
168 1 0.668741 0.128786 0.823324
354 2 0.490275 0.310198 0.0810447
138 1 0.495144 0.425938 0.12125
324 2 0.373559 0.404781 0.0542766
186 1 0.605551 0.361363 0.186122
210 1 0.375453 0.285025 0.00627219
114 1 0.456518 0.296726 0.208352
30 1 0.619907 0.405973 0.0245759
279 1 0.576524 0.500806 0.234233
25 1 0.534007 0.389753 0.359751
234 1 0.402948 0.414833 0.423725
331 2 0.388272 0.336459 0.32964
198 1 0.641576 0.319853 0.439167
152 1 0.553405 0.474249 0.482121
109 1 0.414832 0.458059 0.250547
266 1 0.462852 0.405826 0.660953
18 1 0.629614 0.418246 0.604885
172 1 0.503163 0.335053 0.521404
102 1 0.598533 0.308014 0.709587
317 2 0.438538 0.462057 0.541552
3 1 0.349505 0.372864 0.575143
268 1 0.473551 0.407902 0.972148