ITEM: TIMESTEP
0
ITEM: NUMBER OF ATOMS
360
ITEM: BOX BOUNDS pp pp pp
0.0000000000000000e+00 6.6943295008216896e+00
0.0000000000000000e+00 6.6943295008216896e+00
0.0000000000000000e+00 6.6943295008216896e+00
ITEM: ATOMS id type xs ys zs
147 1 0.258829 0.111498 0.219617
74 1 0.245857 0.191983 0.0333836
244 1 0.102499 0.171109 0.12603
285 1 0.2042 0.0546432 0.0875166
22 1 0.0984215 0.0204517 0.20653
218 1 0.022542 0.0372191 0.0631539
346 2 0.266355 0.222425 0.156241
170 1 0.167511 0.12208 0.337626
169 1 0.114184 0.228893 0.436453
220 1 0.0422431 0.0816474 0.419891
263 1 0.0350616 0.186879 0.265316
235 1 0.181832 0.106312 0.490852
38 1 0.290769 0.0114299 0.376264
117 1 0.263699 0.246385 0.494859
14 1 0.262506 0.0167513 0.604403
172 1 0.103319 0.0308382 0.608514
289 2 0.251603 0.147465 0.599603
134 1 0.206307 0.092821 0.723399
354 2 0.107028 0.159962 0.669896
252 1 0.0285764 0.166894 0.55798
295 2 0.308839 0.00249289 0.733129
133 1 0.275581 0.248717 0.677489
213 1 0.0104578 0.230629 0.722849
146 1 0.0733975 0.113337 0.808822
278 1 0.0868071 0.186587 0.970098
151 1 0.221812 0.152423 0.888754
306 2 0.28877 0.169111 0.77358
18 1 0.139877 0.03394 0.952642
351 2 0.150444 0.0134141 0.821319
70 1 0.149829 0.249111 0.779417
303 2 0.0100022 0.212149 0.855229
184 1 0.316112 0.0424134 0.975662
135 1 0.0171248 0.313661 0.155117
51 1 0.210168 0.448379 0.094025
321 2 0.15589 0.325387 0.157541
245 1 0.122166 0.318311 0.0328978
87 1 0.0376471 0.461145 0.0211535
85 1 0.306352 0.34275 0.163108
7 1 0.0593664 0.460566 0.175713
3 1 0.203101 0.423211 0.24621
69 1 0.0791698 0.338971 0.310468
249 1 0.221118 0.35698 0.398369
5 1 0.210347 0.25604 0.275836
62 1 0.0979469 0.480221 0.360731
302 2 0.190003 0.46101 0.470026
294 2 0.13593 0.40792 0.627874
328 2 0.20833 0.351264 0.735448
19 1 0.273783 0.391534 0.562434
126 1 0.0716973 0.374265 0.736049
145 1 0.226262 0.488765 0.697302
12 1 0.1369 0.273951 0.608778
37 1 0.100662 0.385972 0.503828
194 1 0.215165 0.413654 0.84823
183 1 0.0773046 0.32977 0.886753
243 1 0.271216 0.345041 0.986805
66 1 0.0678506 0.483972 0.862373
326 2 0.157589 0.442199 0.965635
325 2 0.178881 0.272365 0.922055
47 1 0.292931 0.28408 0.840183
290 2 0.274927 0.707582 0.123683
187 1 0.226605 0.597254 0.120651
332 2 0.112722 0.544111 0.105191
33 1 0.0173245 0.62996 0.197246
234 1 0.140043 0.722929 0.137825
196 1 0.013115 0.640692 0.0293669
114 1 0.225907 0.713089 0.00609041
240 1 0.120924 0.60531 0.427599
207 1 0.328277 0.634054 0.256919
78 1 0.0800755 0.733404 0.304185
316 2 0.028063 0.611662 0.334222
282 1 0.233346 0.701564 0.392911
140 1 0.247473 0.521924 0.362442
280 1 0.147224 0.589608 0.259263
142 1 0.173925 0.70984 0.571447
60 1 0.138403 0.525912 0.575665
214 1 0.13426 0.653824 0.707608
296 2 0.231452 0.602934 0.634248
261 1 0.0461779 0.52747 0.700205
200 1 0.330424 0.697301 0.58377
198 1 0.299682 0.649094 0.722569
255 1 0.0376987 0.631158 0.562328
56 1 0.269557 0.577253 0.503616
77 1 0.0532009 0.64073 0.847265
20 1 0.186321 0.566995 0.829127
44 1 0.150191 0.569765 0.974031
46 1 0.331912 0.521249 0.800476
55 1 0.183575 0.729046 0.846133
98 1 0.308242 0.638167 0.904441
248 1 0.291385 0.501082 0.964048
342 2 0.257101 0.944447 0.021104
204 1 0.138059 0.911451 0.0593205
106 1 0.258461 0.834561 0.105233
254 1 0.250262 0.760538 0.242848
223 1 0.0909617 0.850738 0.197649
264 1 0.23717 0.934469 0.246966
130 1 0.131623 0.959277 0.357428
176 1 0.263099 0.862032 0.397423
301 2 0.170422 0.843391 0.301837
155 1 0.120806 0.790137 0.441767
307 2 0.220243 0.963539 0.472591
266 1 0.0752184 0.925468 0.493134
94 1 0.00888684 0.854146 0.343506
327 2 0.234208 0.787058 0.495186
6 1 0.238747 0.78768 0.699053
347 2 0.314587 0.894306 0.629232
233 1 0.194065 0.937556 0.711496
111 1 0.19099 0.870493 0.577435
309 2 0.08234 0.812674 0.592719
53 1 0.0728973 0.811729 0.722851
154 1 0.264637 0.852189 0.937742
319 2 0.239955 0.865536 0.807557
112 1 0.264497 0.983597 0.85422
35 1 0.12076 0.889742 0.879046
50 1 0.0887415 0.775189 0.981751
110 1 0.0262378 0.961474 0.775148
251 1 0.000852579 0.790274 0.857079
205 1 0.512969 0.125961 0.175397
42 1 0.40278 0.220174 0.221521
72 1 0.358649 0.11603 0.097832
212 1 0.660666 0.172223 0.0869886
90 1 0.514406 0.163469 0.00345163
152 1 0.645994 0.0310585 0.152147
168 1 0.496034 0.0121246 0.0778503
67 1 0.392981 0.0477399 0.263672
92 1 0.616058 0.131154 0.432751
36 1 0.501212 0.153454 0.336387
274 1 0.460911 0.0243213 0.425963
349 2 0.43322 0.156997 0.444952
287 1 0.645433 0.166845 0.255509
201 1 0.333541 0.166166 0.356955
262 1 0.530697 0.249332 0.475786
348 2 0.475596 0.0809627 0.705013
24 1 0.357038 0.12122 0.670185
219 1 0.54067 0.197248 0.675115
315 2 0.585362 0.166418 0.556042
257 1 0.48287 0.102369 0.572948
279 1 0.610264 0.0600606 0.709204
273 1 0.394899 0.24151 0.578446
129 1 0.342348 0.105929 0.519254
43 1 0.517535 0.144482 0.825505
323 2 0.656046 0.167665 0.777799
162 1 0.372332 0.184051 0.940868
199 1 0.374564 0.0717918 0.817727
10 1 0.647842 0.186311 0.909682
312 2 0.605366 0.0588144 0.85475
71 1 0.490271 0.0248749 0.918289
203 1 0.635376 0.037312 0.98477
86 1 0.405369 0.236819 0.761566
89 1 0.389709 0.424311 0.0449875
317 2 0.595624 0.40448 0.127315
49 1 0.460204 0.387663 0.179771
231 1 0.409907 0.273042 0.0707177
21 1 0.533756 0.367312 0.0244114
308 2 0.60166 0.262261 0.0137025
171 1 0.646355 0.473365 0.0154621
288 1 0.655254 0.342765 0.237406
189 1 0.561081 0.271428 0.147636
113 1 0.575116 0.478658 0.248668
128 1 0.337071 0.48759 0.204151
73 1 0.539841 0.396681 0.427006
157 1 0.400871 0.297116 0.434651
272 1 0.497387 0.298359 0.304401
229 1 0.441355 0.490507 0.318212
260 1 0.664855 0.272234 0.362682
224 1 0.357009 0.447878 0.446772
353 2 0.637822 0.413248 0.344526
27 1 0.347734 0.365273 0.302625
52 1 0.597313 0.329802 0.5877
188 1 0.451561 0.386146 0.552386
178 1 0.337466 0.379741 0.708221
297 2 0.433859 0.461505 0.727924
322 2 0.597986 0.471739 0.517532
216 1 0.495973 0.357663 0.714441
174 1 0.541418 0.446634 0.899205
313 2 0.389735 0.318587 0.960165
65 1 0.513568 0.283684 0.895565
59 1 0.40513 0.389841 0.856916
230 1 0.613471 0.28855 0.782925
267 1 0.628343 0.442663 0.768626
341 2 0.663348 0.480353 0.888011
107 1 0.658422 0.340851 0.914169
143 1 0.633019 0.603951 0.174044
181 1 0.394933 0.587077 0.0997397
136 1 0.517115 0.684378 0.0829374
350 2 0.457242 0.514836 0.182973
29 1 0.484442 0.627026 0.224362
28 1 0.529197 0.518004 0.0857623
250 1 0.392169 0.74647 0.165366
190 1 0.375835 0.743822 0.0133887
15 1 0.380766 0.62698 0.397719
298 2 0.648962 0.664021 0.457497
122 1 0.616226 0.683274 0.313523
31 1 0.56488 0.546976 0.389945
269 1 0.51419 0.685656 0.439009
226 1 0.452906 0.649264 0.678199
76 1 0.360419 0.529583 0.634157
9 1 0.458738 0.53747 0.510329
333 2 0.635131 0.564739 0.690343
242 1 0.594104 0.617564 0.568495
304 2 0.454354 0.673705 0.549846
247 1 0.540212 0.501733 0.644398
210 1 0.434369 0.548711 0.947487
193 1 0.50128 0.552947 0.790862
138 1 0.477742 0.696382 0.892393
217 1 0.58693 0.606514 0.951632
360 2 0.393356 0.629253 0.811899
206 1 0.65166 0.596374 0.810763
330 2 0.572295 0.734405 0.968874
357 2 0.571753 0.688359 0.757745
141 1 0.49713 0.826339 0.042034
338 2 0.390325 0.848988 0.10124
125 1 0.608236 0.892318 0.120122
23 1 0.471285 0.883267 0.199789
197 1 0.338597 0.960043 0.141564
104 1 0.580985 0.757274 0.196072
359 2 0.337331 0.854285 0.215518
40 1 0.610369 0.965094 0.427375
26 1 0.39969 0.898638 0.339493
283 1 0.603545 0.841038 0.336426
334 2 0.33722 0.782106 0.327256
239 1 0.469127 0.762614 0.304883
314 2 0.626214 0.832729 0.464186
237 1 0.373731 0.769813 0.449838
54 1 0.544521 0.993673 0.28766
58 1 0.495384 0.864249 0.46279
299 2 0.378044 0.762175 0.705886
185 1 0.413957 0.822188 0.601639
91 1 0.565242 0.781749 0.571187
337 2 0.498146 0.891716 0.673486
4 1 0.409225 0.97646 0.637813
281 1 0.623185 0.86058 0.698176
41 1 0.551547 0.95402 0.573417
215 1 0.340701 0.934198 0.503667
161 1 0.495603 0.862387 0.878971
227 1 0.642823 0.943943 0.823353
225 1 0.387205 0.914385 0.994027
139 1 0.496687 0.963348 0.774228
320 2 0.381368 0.952294 0.869731
179 1 0.623873 0.770908 0.847426
165 1 0.337845 0.764546 0.839458
256 1 0.612569 0.880754 0.967909
121 1 0.358438 0.890427 0.754059
39 1 0.487749 0.787473 0.751407
356 2 0.911776 0.0509409 0.161779
32 1 0.800532 0.121162 0.1222
344 2 0.736804 0.0121581 0.0592944
30 1 0.864331 0.00556768 0.0302888
291 2 0.743375 0.0855654 0.230065
88 1 0.955224 0.162395 0.120977
101 1 0.776812 0.243053 0.243522
209 1 0.75288 0.1441 0.363039
182 1 0.892454 0.102795 0.414353
16 1 0.890061 0.127175 0.255934
343 2 0.847528 0.0240605 0.330891
118 1 0.978023 0.0136134 0.301854
186 1 0.966759 0.232812 0.401815
2 1 0.799903 0.102474 0.688133
63 1 0.971263 0.0835621 0.677149
253 1 0.872844 0.0337055 0.568766
202 1 0.693367 0.21298 0.664715
108 1 0.871599 0.194165 0.555904
123 1 0.685588 0.0554782 0.574091
96 1 0.847281 0.244583 0.692537
11 1 0.701237 0.23146 0.510827
352 2 0.779934 0.107353 0.515451
340 2 0.995867 0.0244814 0.534725
305 2 0.860723 0.0498013 0.911183
149 1 0.907369 0.135817 0.815365
144 1 0.738303 0.0816531 0.827863
276 1 0.76238 0.123249 0.980427
97 1 0.911709 0.152775 0.965407
192 1 0.756395 0.233666 0.812337
116 1 0.989963 0.031471 0.91106
241 1 0.917392 0.434576 0.116402
195 1 0.706781 0.318524 0.0891531
75 1 0.855315 0.298867 0.119261
358 2 0.838898 0.393552 0.212204
268 1 0.742839 0.462733 0.164674
124 1 0.799531 0.426754 0.0102066
120 1 0.966157 0.301554 0.00889975
236 1 0.948695 0.377205 0.430824
208 1 0.813896 0.280755 0.404642
167 1 0.778144 0.417656 0.327641
102 1 0.911235 0.308184 0.280028
8 1 0.944159 0.468911 0.28058
284 1 0.702681 0.395405 0.470778
159 1 0.845834 0.472436 0.495293
336 2 0.829409 0.453265 0.624228
34 1 0.820545 0.339266 0.556696
148 1 0.750213 0.359811 0.694018
228 1 0.691888 0.462932 0.601997
173 1 0.989465 0.46756 0.582288
265 1 0.986363 0.308659 0.584947
103 1 0.912356 0.386247 0.688998
310 2 0.984113 0.442298 0.773198
175 1 0.782294 0.395375 0.835515
221 1 0.919616 0.451863 0.925542
95 1 0.913228 0.308382 0.832948
99 1 0.798486 0.270339 0.955954
132 1 0.732018 0.5972 0.0564049
286 1 0.841805 0.720472 0.0371523
48 1 0.756624 0.691466 0.190029
339 2 0.904745 0.69315 0.150888
150 1 0.864587 0.574944 0.195718
335 2 0.972454 0.545445 0.106505
211 1 0.879364 0.562677 0.0298791
115 1 0.668617 0.740286 0.0631185
17 1 0.762205 0.69302 0.378733
153 1 0.87161 0.569157 0.361568
105 1 0.706752 0.548135 0.465285
81 1 0.711946 0.565182 0.29732
79 1 0.984122 0.541322 0.450726
13 1 0.907624 0.710404 0.280044
1 1 0.99912 0.688483 0.429703
222 1 0.866012 0.664475 0.499513
45 1 0.891031 0.574287 0.634163
271 1 0.747478 0.603951 0.599054
180 1 0.670514 0.702237 0.683991
82 1 0.719519 0.741141 0.526169
160 1 0.960268 0.677865 0.72746
137 1 0.826818 0.749529 0.639567
127 1 0.774325 0.521428 0.733451
109 1 0.904603 0.659116 0.902519
57 1 0.915486 0.545476 0.794112
246 1 0.73005 0.686789 0.924698
258 1 0.785593 0.547697 0.909246
163 1 0.803599 0.657396 0.787212
329 2 0.989048 0.553913 0.933499
164 1 0.749744 0.885309 0.063782
293 2 0.877158 0.867126 0.0495835
83 1 0.956228 0.934387 0.163097
64 1 0.7114 0.842188 0.232928
275 1 0.846505 0.81885 0.161754
300 2 0.968486 0.817069 0.229988
166 1 0.79417 0.983602 0.174636
238 1 0.985868 0.788893 0.0994283
177 1 0.740152 0.848409 0.404637
68 1 0.886672 0.796078 0.414599
345 2 0.806386 0.782611 0.30723
156 1 0.929529 0.945 0.444424
80 1 0.865082 0.90048 0.298594
331 2 0.995468 0.825198 0.468884
232 1 0.704928 0.996755 0.313886
93 1 0.772097 0.996114 0.447434
61 1 0.919627 0.837151 0.728205
131 1 0.999529 0.913227 0.618847
100 1 0.854297 0.880332 0.565581
324 2 0.887231 0.966163 0.690845
270 1 0.736034 0.957387 0.697452
84 1 0.962102 0.76598 0.584834
191 1 0.693658 0.908584 0.552579
277 1 0.846185 0.964707 0.808553
158 1 0.751557 0.957485 0.929158
355 2 0.945402 0.914569 0.870364
25 1 0.841628 0.836833 0.930355
119 1 0.749732 0.82393 0.768922
292 2 0.71946 0.813798 0.953236
311 2 0.883814 0.760702 0.821261
318 2 0.950918 0.770696 0.968951
259 1 0.99789 0.897812 0.998645
ITEM: TIMESTEP
3000000
ITEM: NUMBER OF ATOMS
360
ITEM: BOX BOUNDS pp pp pp
0.0000000000000000e+00 6.6943295008216896e+00
0.0000000000000000e+00 6.6943295008216896e+00
0.0000000000000000e+00 6.6943295008216896e+00
ITEM: ATOMS id type xs ys zs
232 1 0.250897 0.179449 0.222908
244 1 0.268858 0.177978 0.0422508
36 1 0.188671 0.0586093 0.149793
69 1 0.0524689 0.113814 0.189034
285 1 0.11443 0.120824 0.0367589
302 2 0.0912555 -0.00476812 0.220377
23 1 0.331263 0.0254406 0.0633006
38 1 0.181706 0.0804746 0.309685
301 2 0.24042 0.207321 0.342613
121 1 0.217301 0.143485 0.456355
335 2 0.103825 0.150522 0.393023
215 1 0.107888 0.036463 0.447002
264 1 -0.00856231 0.108338 0.3382
157 1 0.107074 0.233065 0.287349
14 1 0.152856 0.146725 0.631101
224 1 0.0785734 0.197957 0.508952
266 1 0.0323099 0.22765 0.675253
249 1 0.219375 0.0229474 0.558538
278 1 0.0465115 0.0795894 0.730135
53 1 0.0640575 -0.00114254 0.59147
311 2 0.191811 0.0116346 0.685583
6 1 0.31693 0.10271 0.669313
139 1 0.229383 0.250393 0.734471
254 1 0.273823 0.22748 0.570112
332 2 0.0165012 0.118201 0.612466
32 1 0.052587 0.140359 0.875155
74 1 0.207553 0.199755 0.877502
184 1 0.246689 0.0675492 0.940806
129 1 0.200608 0.0790689 0.787996
321 2 0.131182 0.186728 0.769436
357 2 0.318239 0.184349 0.931048
161 1 0.0989264 -0.0125683 0.938029
44 1 0.234967 0.447138 0.177782
181 1 0.269652 0.481128 0.0182311
245 1 0.139342 0.252329 0.132669
303 2 0.189556 0.383636 0.0797074
359 2 0.0291763 0.286899 0.192774
211 1 0.0591538 0.369886 0.0906807
187 1 0.304667 0.313607 0.120103
3 1 0.210693 0.455759 0.342661
263 1 0.0646771 0.42554 0.432143
51 1 0.259036 0.31936 0.277647
22 1 0.159561 0.289791 0.424813
117 1 0.219254 0.416871 0.483452
33 1 0.106761 0.387975 0.243075
219 1 0.266258 0.376016 0.650417
19 1 0.0201047 0.382941 0.692038
188 1 0.139234 0.325098 0.577818
354 2 0.150062 0.361232 0.72182
243 1 0.174266 0.49679 0.724194
62 1 0.323429 0.479822 0.743607
85 1 0.218073 0.379271 0.820616
103 1 0.122292 0.421778 0.96114
70 1 0.0482739 0.460608 0.826376
183 1 0.0778782 0.300132 0.822688
88 1 0.0925944 0.274382 0.980399
72 1 0.259098 0.327922 0.965917
322 2 0.326677 0.352031 0.758557
147 1 0.109725 0.672161 0.0405726
218 1 0.0883532 0.659517 0.197131
109 1 0.242402 0.609982 0.134548
330 2 0.174014 0.550039 0.240972
175 1 0.116878 0.523876 0.0915301
345 2 0.246642 0.682025 0.239102
280 1 0.120906 0.744095 0.432643
56 1 0.184991 0.617869 0.346249
200 1 0.340901 0.727532 0.487925
288 1 0.0586458 0.59875 0.460505
334 2 0.0637297 0.66796 0.334237
7 1 0.0557592 0.528403 0.305244
305 2 0.161982 0.519935 0.436642
91 1 0.324371 0.687393 0.344238
207 1 0.325428 0.547699 0.44101
15 1 0.313482 0.558751 0.260179
153 1 0.140986 0.636128 0.656388
60 1 0.287781 0.516717 0.590022
294 2 0.279125 0.639725 0.633316
331 2 0.0970597 0.679845 0.547489
160 1 0.0178412 0.546157 0.694219
96 1 0.121946 0.49878 0.562437
8 1 0.210993 0.62781 0.508448
318 2 0.130847 0.598139 0.790587
154 1 0.0353574 0.687886 0.792453
149 1 0.163231 0.684178 0.885148
20 1 0.0575652 0.575954 0.936781
145 1 0.217541 0.526083 0.876424
106 1 0.291436 0.663157 0.993518
142 1 0.251437 0.630821 0.770186
360 2 0.178565 0.572561 0.996955
83 1 0.20424 0.759021 0.12702
1 1 0.0174592 0.870695 0.249526
306 2 0.287155 0.905655 0.124532
165 1 0.0684471 0.842726 0.0560651
225 1 0.171059 0.900746 0.187499
97 1 0.0398363 0.986991 0.0994974
170 1 0.225886 0.909951 0.00515917
327 2 0.0820517 0.782978 0.172989
274 1 0.298429 0.979773 0.238817
5 1 0.254969 0.828079 0.400988
48 1 0.132441 0.926586 0.337905
324 2 0.0528703 0.837555 0.377104
119 1 0.11338 0.891905 0.489781
237 1 0.149445 0.783308 0.285899
26 1 0.263681 0.976713 0.405202
204 1 0.307205 0.822041 0.245907
112 1 0.182255 0.886948 0.647214
58 1 0.307208 0.888352 0.533217
111 1 0.198659 0.762226 0.572811
198 1 0.0525688 0.805898 0.599179
199 1 0.305701 0.765483 0.682469
4 1 0.321672 0.947141 0.689545
319 2 0.0524284 0.815864 0.73233
197 1 0.26999 0.950958 0.839468
39 1 0.113265 0.83593 0.909366
196 1 0.271573 0.805102 0.902519
18 1 0.11708 0.931729 0.791984
343 2 0.179445 0.786465 1.00055
351 2 0.259839 0.862317 0.761373
146 1 0.164142 0.770035 0.758463
256 1 0.583898 0.0728734 0.105121
340 2 0.575625 0.212688 0.108039
86 1 0.433206 0.14469 0.103462
325 2 0.395575 0.138106 0.23942
49 1 0.525992 0.170531 0.214665
287 1 0.451457 0.0224843 0.205631
164 1 0.608045 0.0157752 0.2694
189 1 0.476975 0.207003 0.376016
42 1 0.492506 0.0579496 0.363754
358 2 0.58928 0.130457 0.330449
220 1 0.341999 0.0957557 0.343995
21 1 0.62198 0.0147028 0.443061
27 1 0.393091 0.267229 0.253585
11 1 0.446848 0.0300066 0.653135
350 2 0.631645 0.167624 0.740972
34 1 0.662953 0.209609 0.614548
216 1 0.514801 0.179896 0.665282
214 1 0.625748 0.0545701 0.61606
92 1 0.521178 0.112069 0.507018
40 1 0.426613 0.223274 0.532265
292 2 0.675354 0.128666 0.50571
185 1 0.351276 0.099004 0.511934
227 1 0.559453 0.0399055 0.907093
41 1 0.512813 0.177981 0.83905
203 1 0.545116 0.191572 0.989455
217 1 0.41955 0.0914093 0.955848
281 1 0.580354 0.0437353 0.757043
151 1 0.343583 0.124165 0.825398
125 1 0.441552 -0.00502908 0.81377
168 1 0.405487 0.255998 0.999687
326 2 0.47058 0.104404 0.755064
239 1 0.410388 0.421342 0.0398406
28 1 0.546557 0.443241 0.169388
128 1 0.395496 0.4106 0.205215
171 1 0.588556 0.355593 0.0420348
201 1 0.473118 0.297889 0.120526
236 1 0.617836 0.30791 0.189582
272 1 0.508977 0.361783 0.323923
309 2 0.474216 0.337778 0.454243
73 1 0.360955 0.398841 0.382784
113 1 0.610346 0.404112 0.437998
133 1 0.475165 0.482918 0.468592
317 2 0.583174 0.487938 0.29991
273 1 0.326298 0.248368 0.426389
31 1 0.647349 0.25655 0.343289
257 1 0.576536 0.256934 0.48431
247 1 0.591856 0.494597 0.563668
262 1 0.523996 0.359463 0.613247
77 1 0.442783 0.490836 0.644567
130 1 0.380698 0.37261 0.538299
235 1 0.380112 0.265346 0.682936
349 2 0.621983 0.433948 0.935197
162 1 0.378128 0.27865 0.844424
89 1 0.523599 0.34154 0.898942
52 1 0.45668 0.396026 0.757498
252 1 0.58442 0.289747 0.762638
46 1 0.485179 0.490997 0.897679
59 1 0.349907 0.421969 0.878485
148 1 0.57132 0.493284 0.741591
250 1 0.551968 0.678172 0.100238
50 1 0.366489 0.700473 0.175646
64 1 0.455081 0.565315 0.172054
338 2 0.596286 0.56325 0.163021
328 2 0.425256 0.71293 0.0631893
289 2 0.342902 0.509956 0.131437
132 1 0.427908 0.587039 0.00921341
143 1 0.562179 0.514611 0.0268566
240 1 0.466524 0.646707 0.410076
242 1 0.60868 0.567607 0.407487
333 2 0.420914 0.641807 0.272388
29 1 0.46009 0.522276 0.316286
270 1 0.601603 0.723721 0.393392
122 1 0.554398 0.636794 0.262238
337 2 0.407725 0.726002 0.61865
229 1 0.397801 0.632967 0.710127
178 1 0.539033 0.614289 0.65178
173 1 0.409789 0.619045 0.555311
296 2 0.547759 0.610909 0.519116
82 1 0.538699 0.742579 0.558545
277 1 0.670162 0.614663 0.727322
138 1 0.500865 0.757111 0.717253
226 1 0.522855 0.640363 0.822425
353 2 0.440617 0.535901 0.780029
124 1 0.623604 0.550538 0.885068
308 2 0.54158 0.628963 0.960908
76 1 0.371588 0.600975 0.862864
341 2 0.35439 0.720363 0.813615
114 1 0.431787 0.721404 0.931341
275 1 0.586038 0.751847 0.934961
24 1 0.486973 0.980521 0.0394185
205 1 0.497121 0.824871 0.0428018
191 1 0.40276 0.888361 0.162007
258 1 0.575412 0.908227 0.155706
80 1 0.653903 0.799552 0.0770554
293 2 0.487373 0.768213 0.170822
71 1 0.598252 0.788495 0.239376
47 1 0.336987 0.807306 0.0449468
9 1 0.455651 0.810985 0.432693
141 1 0.575524 0.891222 0.371931
283 1 0.396373 0.942767 0.34133
159 1 0.460106 0.772021 0.28649
67 1 0.445116 0.968776 0.500623
344 2 0.659114 0.903241 0.250602
323 2 0.506037 0.903911 0.260945
43 1 0.441843 0.860834 0.61612
174 1 0.575856 0.910629 0.555863
299 2 0.596863 0.811981 0.656289
210 1 0.535383 0.908121 0.727905
320 2 0.633712 0.896859 0.81762
179 1 0.526866 0.889597 0.886778
190 1 0.374299 0.93921 0.942269
246 1 0.386119 0.846576 0.810262
136 1 0.631874 0.780298 0.775649
347 2 0.490349 0.774066 0.833897
279 1 0.628174 0.931064 0.993629
339 2 0.742832 0.108115 0.0992355
16 1 0.850435 0.0231587 0.0944414
230 1 0.823425 0.200925 0.143102
291 2 0.922987 0.106092 0.150306
99 1 0.974169 0.207628 0.0821315
212 1 0.69005 0.223396 0.0470964
135 1 0.674693 0.148811 0.204934
195 1 0.817998 0.0851831 0.242212
182 1 0.863934 0.162106 0.383513
231 1 0.710161 0.123738 0.358489
176 1 0.813235 0.0216204 0.449996
2 1 0.965684 0.0672275 0.494602
336 2 0.880002 0.0105927 0.330673
150 1 0.943815 0.215376 0.242419
228 1 0.734007 0.240042 0.465326
253 1 0.79139 0.13358 0.561096
163 1 0.871802 0.187566 0.694881
110 1 0.908877 0.0529177 0.637284
209 1 0.924514 0.216302 0.522413
286 1 0.747916 0.0933601 0.738388
107 1 0.96535 0.0807734 0.995795
131 1 0.866994 0.109212 0.832385
276 1 0.82155 0.151866 0.980023
312 2 0.973991 0.183395 0.781402
260 1 0.666405 0.146877 0.874872
95 1 0.945675 0.231401 0.913694
202 1 0.695951 0.0680969 0.996057
172 1 0.969745 0.00702691 0.839842
120 1 0.761276 0.351946 0.155317
13 1 0.844312 0.301057 0.0196765
118 1 0.918041 0.340179 0.158721
248 1 0.861948 0.457121 0.070708
282 1 0.986284 0.4861 0.177566
290 2 0.732568 0.386028 0.0344884
115 1 0.693221 0.492203 0.120448
140 1 0.830004 0.459949 0.233745
313 2 0.989238 0.475111 0.018263
45 1 0.869478 0.337615 0.429774
348 2 0.72697 0.346303 0.397197
269 1 0.680147 0.401144 0.281525
222 1 0.768086 0.484087 0.395402
123 1 0.786397 0.270016 0.286651
87 1 0.963895 0.372878 0.305356
298 2 0.862325 0.454756 0.494349
241 1 0.93148 0.494252 0.384893
37 1 1.00075 0.252092 0.392156
186 1 0.878623 0.413883 0.617397
208 1 0.740964 0.41173 0.53068
307 2 0.927381 0.295928 0.654368
108 1 0.801044 0.282624 0.605535
12 1 0.995266 0.351199 0.53731
356 2 0.790354 0.377614 0.719162
284 1 0.677959 0.35649 0.659745
265 1 0.745089 0.497485 0.664377
206 1 0.743567 0.248072 0.77685
193 1 0.813993 0.387919 0.894899
234 1 0.981282 0.37753 0.94264
90 1 0.900135 0.303151 0.790191
194 1 0.691843 0.417039 0.803634
169 1 0.885977 0.463235 0.756666
342 2 0.811081 0.258575 0.891175
10 1 0.676705 0.298755 0.907088
78 1 0.824302 0.605073 0.130729
158 1 0.694658 0.673347 0.167282
155 1 0.974917 0.729923 0.133891
223 1 0.972478 0.593718 0.0690857
213 1 0.674247 0.641285 0.0195997
81 1 0.814862 0.694322 0.267119
316 2 0.8304 0.574626 0.3215
54 1 0.745372 0.650629 0.406625
238 1 0.907809 0.637546 0.429372
167 1 0.69252 0.560946 0.270037
105 1 0.942669 0.617718 0.247948
346 2 0.678964 0.691052 0.294581
304 2 0.705128 0.523955 0.499112
300 2 0.887994 0.541827 0.651121
180 1 0.821992 0.577028 0.538258
57 1 0.811464 0.648714 0.69169
68 1 0.837048 0.727388 0.560112
255 1 0.974748 0.656765 0.594841
267 1 0.672443 0.636154 0.542317
79 1 0.96797 0.511886 0.536757
63 1 0.77818 0.542453 0.828263
66 1 0.87495 0.669113 0.840824
192 1 0.723703 0.697466 0.858696
55 1 0.994481 0.720575 0.942449
126 1 0.818848 0.648164 0.972488
261 1 0.904144 0.511999 0.935051
355 2 0.747107 0.762281 1.0012
297 2 0.968066 0.571762 0.826513
65 1 0.736559 0.490956 0.972431
152 1 0.908657 0.885609 0.124193
17 1 0.746135 0.828958 0.195891
352 2 0.826379 0.937706 0.209576
310 2 0.890297 0.787096 0.220071
221 1 0.778755 0.89367 0.0351802
101 1 0.949829 1.00847 0.229476
75 1 0.710203 0.988229 0.150293
251 1 0.830697 0.752722 0.10013
137 1 0.731854 0.806586 0.338299
102 1 0.742859 0.966413 0.320551
259 1 0.869727 0.86503 0.312852
93 1 0.826039 0.853282 0.452263
314 2 0.841405 0.74201 0.379378
100 1 0.969293 0.793597 0.464206
268 1 0.98601 0.946479 0.38006
315 2 0.700707 0.909085 0.433846
94 1 0.965854 0.740905 0.327676
177 1 0.716443 0.954325 0.549282
84 1 0.818192 0.87194 0.627355
329 2 0.783808 1.00997 0.641899
156 1 0.935968 0.925099 0.530779
166 1 0.687993 0.913342 0.701958
35 1 0.979147 0.927849 0.696069
233 1 0.927765 0.770765 0.69051
98 1 0.705858 0.745805 0.650299
271 1 0.693092 0.797864 0.499902
295 2 0.826229 0.896186 0.872816
30 1 0.709722 0.844699 0.901376
134 1 0.960104 0.841946 0.831718
144 1 0.859269 0.800921 0.949001
127 1 0.791845 0.79827 0.768445
116 1 0.963222 0.909079 0.969167
25 1 0.836721 0.965297 0.761115
61 1 0.835657 1.00762 0.942329
104 1 0.712497 0.996039 0.845387
ITEM: TIMESTEP
6000000
ITEM: NUMBER OF ATOMS
360
ITEM: BOX BOUNDS pp pp pp
0.0000000000000000e+00 6.6943295008216896e+00
0.0000000000000000e+00 6.6943295008216896e+00
0.0000000000000000e+00 6.6943295008216896e+00
ITEM: ATOMS id type xs ys zs
38 1 0.311943 0.0772704 0.211426
99 1 0.0440151 0.226767 0.225043
303 2 0.174734 0.17804 0.216057
36 1 0.152214 0.0910704 0.126368
23 1 0.261642 0.149838 0.0346092
212 1 0.0383084 0.147121 0.0274064
337 2 0.323839 0.0437353 -0.00660384
285 1 0.30379 0.221418 0.183282
323 2 0.108277 0.238531 0.345401
302 2 0.188036 0.0584205 0.388494
69 1 0.101842 0.0972734 0.29317
157 1 0.230253 0.18223 0.330271
215 1 0.0976062 0.123898 0.450271
324 2 -0.00416588 0.0566395 0.37473
48 1 0.314379 0.0619007 0.361452
117 1 0.325116 0.205248 0.454468
40 1 0.260662 0.035111 0.669404
53 1 0.166696 0.175621 0.590101
184 1 0.106689 0.0857319 0.697564
14 1 0.00700295 0.139628 0.592748
6 1 0.0841823 0.242173 0.701807
249 1 0.23581 0.182326 0.737643
188 1 0.250112 0.0696811 0.510397
88 1 0.138373 0.22857 0.952688
107 1 0.26757 0.119912 0.873374
125 1 0.104757 0.131827 0.843989
116 1 0.149577 0.0478338 0.960049
352 2 0.0144928 -0.0123943 0.931077
3 1 0.137176 0.435002 0.146
338 2 0.250609 0.354224 0.166995
44 1 0.257164 0.449244 0.245238
187 1 0.304616 0.450262 0.0933207
245 1 0.0441447 0.339925 0.0188315
223 1 0.00688445 0.385586 0.204913
145 1 0.00850155 0.488935 0.0649993
170 1 0.143285 0.255231 0.11479
181 1 0.203956 0.351552 0.0101034
232 1 0.185043 0.268026 0.446383
22 1 0.183322 0.315519 0.263485
15 1 0.191905 0.430903 0.38064
51 1 0.0496136 0.341219 0.35943
33 1 0.312216 0.330545 0.344959
321 2 0.111275 0.385476 0.466513
301 2 0.110921 0.431184 0.280595
224 1 0.0387673 0.265317 0.491407
73 1 0.315305 0.412696 0.482987
243 1 0.0969741 0.34919 0.599606
52 1 0.277648 0.302303 0.593711
219 1 0.24693 0.46246 0.637954
183 1 0.195738 0.354901 0.724851
332 2 0.133738 0.463162 0.697817
72 1 0.171891 0.412798 0.866706
41 1 0.26354 0.27998 0.867428
211 1 0.0205392 0.267895 0.86441
306 2 0.149162 0.279314 0.820974
193 1 0.0122457 0.446973 0.907635
149 1 0.157053 0.498525 1.00229
85 1 0.0340702 0.37967 0.743193
162 1 0.316587 0.409732 0.806935
308 2 0.32047 0.373212 0.9472
109 1 0.0532295 0.695986 0.206669
147 1 0.25938 0.720993 0.0943158
192 1 0.125342 0.618512 0.0997081
128 1 0.285155 0.588572 0.170604
293 2 0.260716 0.586231 0.0520999
237 1 0.207421 0.696842 0.245459
282 1 0.148449 0.557236 0.255574
56 1 0.259737 0.700507 0.421113
341 2 0.176666 0.560406 0.394971
64 1 0.286651 0.576307 0.332782
218 1 0.108968 0.667375 0.362478
7 1 0.048228 0.497384 0.369408
297 2 0.331106 0.692919 0.290117
207 1 0.247065 0.552069 0.503641
314 2 0.216216 0.690807 0.565933
19 1 0.175458 0.599001 0.643436
160 1 0.0270077 0.627612 0.668993
227 1 0.269096 0.718773 0.694117
79 1 0.101227 0.645692 0.517367
288 1 0.109807 0.49259 0.539458
310 2 0.0219249 0.747283 0.567933
327 2 0.160923 0.574259 0.877981
76 1 0.286416 0.656739 0.843147
134 1 0.139026 0.669494 0.789314
154 1 0.0518508 0.605651 0.94204
62 1 0.226233 0.529452 0.777411
172 1 0.194006 0.667853 0.967167
234 1 0.0734476 0.524147 0.7971
74 1 0.286251 0.510187 0.925351
340 2 -0.00112507 0.656996 0.822323
225 1 0.213741 0.851054 0.173426
155 1 0.0505204 0.844629 0.167752
55 1 0.0756584 0.94973 0.0571714
165 1 0.249255 0.982139 0.0863516
50 1 0.194746 0.841778 0.00950898
359 2 0.10146 0.981253 0.187386
221 1 0.0576322 0.742152 0.0370926
316 2 0.143155 0.758715 0.134133
280 1 0.11967 0.81484 0.303274
91 1 0.111997 0.792709 0.460912
112 1 0.248334 0.919269 0.434627
345 2 0.0305409 0.860989 0.382526
204 1 0.285736 0.815336 0.321593
255 1 0.0993271 0.964249 0.43387
268 1 0.192553 0.971353 0.288239
97 1 0.0386083 0.953648 0.295323
29 1 0.238298 0.812822 0.544809
8 1 0.113285 0.76284 0.65196
111 1 0.110991 0.900881 0.728952
190 1 0.260824 0.87759 0.69272
209 1 0.135685 0.968848 0.58894
39 1 0.219036 0.817919 0.835438
49 1 0.276904 0.942517 0.928848
142 1 0.0990549 0.895719 0.90935
106 1 0.331822 0.792663 0.961233
198 1 0.0719514 0.749364 0.88989
151 1 0.19556 1.00338 0.805332
197 1 0.0180938 0.999184 0.798226
298 2 0.053091 0.785855 0.762339
258 1 0.590737 0.0491734 0.133856
244 1 0.623596 0.225778 0.102052
42 1 0.456172 0.215945 0.13867
287 1 0.411992 0.053674 0.0976775
189 1 0.546208 0.15827 0.250011
220 1 0.405737 0.195448 0.305014
9 1 0.533491 0.0962336 0.389779
254 1 0.41951 0.057506 0.477638
322 2 0.518994 0.213675 0.366139
93 1 0.612092 0.00942995 0.271298
26 1 0.443613 0.0348836 0.273762
292 2 0.657066 0.102886 0.438974
179 1 0.57857 0.0781269 0.54797
356 2 0.453357 0.19297 0.67761
21 1 0.445722 0.0345712 0.634008
286 1 0.564809 0.104687 0.703805
139 1 0.353012 0.165262 0.593499
67 1 0.50266 0.20565 0.49516
269 1 0.65969 0.21138 0.510652
25 1 0.394873 0.198213 0.960473
185 1 0.373995 0.120543 0.746352
299 2 0.369664 0.209494 0.841066
214 1 0.670207 0.0245522 0.997749
247 1 0.495152 0.180759 0.817287
83 1 0.421015 0.0557556 0.900242
196 1 0.530203 0.137357 0.991558
34 1 0.621994 0.0988439 0.868548
353 2 0.630246 0.0101065 0.768797
127 1 0.635425 0.237415 0.77386
203 1 0.575937 0.452661 0.0620084
135 1 0.653156 0.368992 0.165203
168 1 0.384622 0.360021 0.206133
28 1 0.514975 0.472582 0.2095
347 2 0.436288 0.410243 0.0964563
59 1 0.331183 0.303988 0.063545
201 1 0.496707 0.318392 0.0282619
330 2 0.385027 0.509142 0.216751
350 2 0.635527 0.329089 0.0360613
272 1 0.536345 0.315976 0.234374
27 1 0.445591 0.32982 0.426411
123 1 0.601989 0.301765 0.381364
171 1 0.642194 0.446983 0.29425
317 2 0.52688 0.399758 0.334751
273 1 0.396741 0.455358 0.348423
267 1 0.627987 0.434278 0.451532
313 2 0.658275 0.272888 0.253077
54 1 0.463994 0.473556 0.487984
133 1 0.397765 0.444796 0.684317
124 1 0.368215 0.287293 0.729467
262 1 0.566631 0.421758 0.607123
242 1 0.442338 0.335276 0.588899
4 1 0.565867 0.245249 0.63731
194 1 0.526072 0.36249 0.741936
148 1 0.666559 0.418035 0.7401
329 2 0.550433 0.333445 0.509116
20 1 0.435197 0.317404 0.878945