ITEM: TIMESTEP
0
ITEM: NUMBER OF ATOMS
360
ITEM: BOX BOUNDS pp pp pp
0.0000000000000000e+00 6.6943295008216896e+00
0.0000000000000000e+00 6.6943295008216896e+00
0.0000000000000000e+00 6.6943295008216896e+00
ITEM: ATOMS id type xs ys zs
5 1 0.0462051 0.0940406 0.0219421
208 1 0.112841 0.176938 0.127042
108 1 0.278074 0.213288 0.146793
344 2 0.209154 0.092992 0.161714
161 1 0.184879 0.0158301 0.0455746
24 1 0.240423 0.163462 0.0189909
281 1 0.328071 0.0405763 0.0289303
311 2 0.26111 0.0760481 0.385838
186 1 0.179143 0.178443 0.273886
89 1 0.137793 0.0449659 0.444201
92 1 0.0998906 0.181552 0.398339
125 1 0.0605647 0.0670192 0.278575
105 1 0.230654 0.161024 0.4661
97 1 0.203619 0.0260377 0.280934
205 1 0.0485434 0.106484 0.724798
183 1 0.178543 0.0748814 0.617254
50 1 0.258303 0.208369 0.639722
286 1 0.0871883 0.188853 0.556309
147 1 0.148885 0.225633 0.72384
156 1 0.0189999 0.0404015 0.579824
185 1 0.325441 0.124618 0.908349
27 1 0.211988 0.0867609 0.764657
192 1 0.12757 0.130157 0.902149
359 2 0.101199 0.238383 0.831052
228 1 0.223703 0.249605 0.864998
36 1 0.169576 0.420013 0.0771801
18 1 0.0643995 0.382392 0.168823
244 1 0.3011 0.410439 0.166507
285 1 0.143018 0.4855 0.221549
222 1 0.0365258 0.255795 0.239532
356 2 0.153341 0.297224 0.125901
8 1 0.186473 0.437151 0.381872
90 1 0.0569491 0.381514 0.316126
265 1 0.0955465 0.327841 0.482569
162 1 0.213568 0.281132 0.384673
309 2 0.297523 0.254108 0.28366
135 1 0.309227 0.487736 0.44477
193 1 0.31977 0.310014 0.477062
312 2 0.0225147 0.276627 0.366436
248 1 0.201429 0.331383 0.250904
237 1 0.0400441 0.459209 0.501924
347 2 0.106543 0.472636 0.610553
155 1 0.0876342 0.340947 0.642751
190 1 0.227701 0.369104 0.69815
152 1 0.212036 0.408746 0.549744
313 2 0.201235 0.27084 0.538274
355 2 0.295621 0.27849 0.74047
35 1 0.130979 0.369251 0.838842
340 2 0.038927 0.421606 0.762338
301 2 0.181933 0.373094 0.958253
144 1 0.19648 0.490051 0.948807
216 1 0.28382 0.389248 0.845937
139 1 0.115368 0.260815 0.98314
351 2 0.264237 0.497515 0.768951
250 1 0.293203 0.319212 0.992131
33 1 0.050975 0.404554 0.96875
241 1 0.209566 0.594764 0.13088
224 1 0.208128 0.739048 0.192768
197 1 0.205627 0.727142 0.0421981
13 1 0.0351822 0.550516 0.130257
254 1 0.0687758 0.717749 0.103094
349 2 0.312744 0.521119 0.12106
207 1 0.0865287 0.624303 0.24076
85 1 0.2961 0.510183 0.261897
336 2 0.148497 0.668418 0.44905
348 2 0.203945 0.560016 0.344049
182 1 0.187142 0.691444 0.338814
206 1 0.0301904 0.67393 0.397473
79 1 0.0594749 0.54368 0.361302
329 2 0.32935 0.744051 0.406166
343 2 0.256416 0.631614 0.254905
81 1 0.0509392 0.619577 0.565133
242 1 0.0030746 0.580693 0.72704
6 1 0.10054 0.736268 0.735953
9 1 0.266704 0.683834 0.522635
150 1 0.173395 0.635563 0.641518
2 1 0.272565 0.508812 0.634765
171 1 0.16461 0.554467 0.50795
210 1 0.141092 0.506708 0.736364
261 1 0.0243994 0.648066 0.984277
15 1 0.0688061 0.538028 0.880964
315 2 0.0614356 0.654435 0.837145
100 1 0.192013 0.604145 0.839696
297 2 0.233375 0.709275 0.796851
234 1 0.119171 0.743838 0.90726
357 2 0.145699 0.617995 0.958708
140 1 0.301561 0.610614 0.996019
157 1 0.308201 0.918138 0.213135
159 1 0.190349 0.87139 0.101164
230 1 0.0743182 0.983363 0.140177
44 1 0.333128 0.767562 0.0947094
279 1 0.0512429 0.757354 0.274926
337 2 0.0894048 0.943531 0.363155
149 1 0.263616 0.883887 0.374493
202 1 0.322032 0.756539 0.283732
112 1 0.124807 0.822269 0.415518
84 1 0.149713 0.878868 0.271201
270 1 0.054145 0.916774 0.498864
300 2 0.00588309 0.805066 0.371711
22 1 0.280615 0.997762 0.480684
10 1 0.00988349 0.905726 0.272936
151 1 0.244871 0.780906 0.656877
310 2 0.157048 0.862705 0.704584
75 1 0.307595 0.834965 0.514293
116 1 0.190551 0.912463 0.571053
267 1 0.288355 0.968611 0.727155
98 1 0.0438688 0.853973 0.652761
253 1 0.133692 0.761354 0.55166
328 2 0.313665 0.901188 0.856505
221 1 0.0606167 0.846823 0.823889
246 1 0.161621 0.883959 0.955729
273 1 0.204714 0.839284 0.809538
3 1 0.117301 0.968502 0.759196
252 1 0.027257 0.935134 0.999118
269 1 0.23353 0.995924 0.880123
303 2 0.0481486 0.805056 0.989085
225 1 0.301569 0.890668 0.987022
308 2 0.110279 0.997696 0.930545
164 1 0.2927 0.754525 0.913045
293 2 0.595351 0.0639371 0.220097
34 1 0.608924 0.0105479 0.0991667
55 1 0.345251 0.0606722 0.171313
317 2 0.464762 0.042188 0.0937262
191 1 0.525389 0.158246 0.125697
304 2 0.559906 0.205145 0.23909
96 1 0.39077 0.197294 0.0495595
94 1 0.429055 0.248617 0.22333
58 1 0.501233 0.106594 0.291195
65 1 0.659853 0.0281606 0.390707
137 1 0.553298 0.11013 0.452328
31 1 0.414295 0.230043 0.407261
277 1 0.399332 0.0787024 0.441822
288 1 0.589979 0.24443 0.353837
203 1 0.338324 0.145433 0.317274
87 1 0.469571 0.198029 0.549222
136 1 0.614217 0.00179774 0.704599
45 1 0.620993 0.172691 0.648362
47 1 0.505753 0.163717 0.731018
194 1 0.505753 0.0263768 0.574525
292 2 0.390849 0.205832 0.654045
324 2 0.351591 0.189335 0.511814
7 1 0.445359 0.00727178 0.723013
51 1 0.361285 0.0886753 0.602486
109 1 0.601953 0.249333 0.514983
41 1 0.461861 0.0902651 0.980429
170 1 0.645329 0.16665 0.853771
245 1 0.452858 0.198128 0.876585
178 1 0.524578 0.057854 0.843401
106 1 0.601201 0.154806 0.984961
287 1 0.343283 0.126968 0.753522
174 1 0.651651 0.0266787 0.900225
319 2 0.343452 0.247808 0.893443
334 2 0.431293 0.37196 0.217049
257 1 0.569737 0.303896 0.158563
169 1 0.577856 0.425245 0.0630796
181 1 0.558591 0.438729 0.212853
69 1 0.430445 0.355344 0.0836975
306 2 0.579107 0.26088 0.0443167
54 1 0.441508 0.491686 0.120282
142 1 0.338478 0.458762 0.0117751
145 1 0.335721 0.381937 0.332621
115 1 0.488973 0.351224 0.33471
184 1 0.655809 0.362899 0.30845
346 2 0.581596 0.355468 0.412914
314 2 0.426716 0.428927 0.401467
20 1 0.573636 0.48525 0.413656
276 1 0.360366 0.316377 0.627935
103 1 0.480644 0.43119 0.628992
220 1 0.531506 0.289086 0.663292
166 1 0.367929 0.439346 0.732465
266 1 0.614243 0.418227 0.541444
331 2 0.337697 0.429943 0.565797
298 2 0.621559 0.366241 0.70126
146 1 0.485355 0.341187 0.509152
128 1 0.577542 0.2897 0.911064
294 2 0.571447 0.267029 0.794577
341 2 0.552672 0.416903 0.89096
76 1 0.516798 0.389066 0.778118
323 2 0.406691 0.443983 0.84938
119 1 0.40849 0.294661 0.770601
124 1 0.432203 0.348996 0.919423
259 1 0.649021 0.471748 0.95385
53 1 0.628004 0.69629 0.13127
284 1 0.365389 0.627565 0.192592
133 1 0.549745 0.58824 0.0500262
322 2 0.411551 0.609409 0.0772828
217 1 0.569868 0.591069 0.237455
88 1 0.477724 0.702348 0.132567
271 1 0.636796 0.635235 0.375062
249 1 0.459533 0.689225 0.310359
180 1 0.558351 0.742168 0.434084
307 2 0.465125 0.566936 0.405339
233 1 0.436337 0.66877 0.484999
107 1 0.340723 0.611065 0.378458
130 1 0.43746 0.50738 0.291498
295 2 0.409843 0.526729 0.648993
48 1 0.624615 0.515016 0.668207
318 2 0.352692 0.587174 0.551408
73 1 0.487017 0.635892 0.624829
52 1 0.346915 0.63783 0.703171
177 1 0.627511 0.673921 0.697536
176 1 0.45581 0.502063 0.505475
258 1 0.594425 0.600832 0.520824
4 1 0.502392 0.748278 0.731733
172 1 0.411391 0.687702 0.834776
211 1 0.474936 0.535997 0.920982
138 1 0.423709 0.701639 0.989009
168 1 0.61838 0.538216 0.810706
59 1 0.559114 0.664668 0.88696
165 1 0.482052 0.551616 0.768953
226 1 0.336161 0.5518 0.855552
352 2 0.454048 0.809806 0.0518822
26 1 0.407882 0.923742 0.109502
231 1 0.575542 0.853908 0.124789
63 1 0.445338 0.824179 0.207893
99 1 0.479972 0.973871 0.233439
37 1 0.637291 0.945944 0.247068
173 1 0.50815 0.97385 0.398473
339 2 0.387179 0.923427 0.450631
38 1 0.628853 0.873976 0.416208
327 2 0.544603 0.875933 0.316284
132 1 0.592389 0.76146 0.275279
110 1 0.430448 0.820517 0.372107
335 2 0.604397 0.978001 0.496562
251 1 0.358697 0.990938 0.326869
239 1 0.503031 0.882976 0.663341
113 1 0.369127 0.935832 0.591462
175 1 0.494701 0.867196 0.503123
12 1 0.65502 0.825877 0.72364
66 1 0.402585 0.759846 0.605767
196 1 0.663589 0.87147 0.557798
23 1 0.568178 0.771914 0.586512
260 1 0.431092 0.839698 0.913141
280 1 0.566376 0.906435 0.821514
16 1 0.495187 0.951228 0.992766
64 1 0.387388 0.851603 0.763088
358 2 0.619288 0.89328 0.987615
316 2 0.517297 0.775704 0.854108
255 1 0.661806 0.796605 0.876553
272 1 0.572599 0.76905 0.993055
148 1 0.389687 0.998003 0.861726
83 1 0.822772 0.134109 0.223495
332 2 0.909479 0.222621 0.183887
350 2 0.853405 0.0931776 0.0982265
30 1 0.823652 0.222374 0.0986032
29 1 0.753448 0.0682919 0.00118933
345 2 0.712966 0.196579 0.0366273
70 1 0.960567 0.1102 0.161792
141 1 0.744281 0.0117071 0.151874
111 1 0.687899 0.148797 0.141269
86 1 0.819636 0.0552751 0.367636
342 2 0.853288 0.177506 0.416106
179 1 0.722503 0.154595 0.437331
123 1 0.950358 0.162362 0.315493
188 1 0.979526 0.040953 0.41158
163 1 0.956516 0.199312 0.459148
321 2 0.742662 0.0222168 0.280103
167 1 0.681737 0.138477 0.29431
236 1 0.940515 0.167543 0.628152
21 1 0.792892 0.190051 0.620032
82 1 0.850683 0.0461984 0.65995
80 1 0.86708 0.0816888 0.511151
11 1 0.682155 0.0481619 0.579597
198 1 0.719001 0.0989156 0.743681
43 1 0.995987 0.19293 0.865324
223 1 0.857493 0.196649 0.758669
93 1 0.828599 0.0599317 0.856663
212 1 0.782874 0.197279 0.912103
235 1 0.894293 0.140437 0.991293
296 2 0.919652 0.0910838 0.761696
56 1 0.992928 0.0289535 0.874799
215 1 0.69732 0.405173 0.166522
213 1 0.7793 0.467345 0.0331094
326 2 0.801232 0.365376 0.118491
127 1 0.696916 0.323113 0.0326802
74 1 0.929013 0.416452 0.0901932
121 1 0.742425 0.27085 0.208121
214 1 0.963146 0.491084 0.24844
262 1 0.906335 0.336698 0.225373
143 1 0.987795 0.262935 0.0921587
240 1 0.910437 0.349742 0.395269
243 1 0.72469 0.373246 0.442701
118 1 0.800954 0.267171 0.344311
232 1 0.812612 0.423963 0.301789
219 1 0.899708 0.497451 0.430389
247 1 0.773337 0.469789 0.679855
275 1 0.837004 0.414272 0.54951
302 2 0.719135 0.477503 0.567255
71 1 0.855935 0.336022 0.678776
49 1 0.723474 0.339699 0.612614
282 1 0.992122 0.275553 0.727373
153 1 0.963473 0.313395 0.568142
19 1 0.979933 0.447912 0.648193
278 1 0.822959 0.261392 0.500052
195 1 0.916652 0.48733 0.784777
14 1 0.825461 0.339361 0.835992
289 2 0.712637 0.29631 0.885232
57 1 0.868387 0.303354 0.99581
291 2 0.775459 0.402376 0.929262
256 1 0.897973 0.462543 0.932178
28 1 0.982505 0.353671 0.849943
122 1 0.689565 0.4057 0.794735
353 2 0.992335 0.285497 0.968398
209 1 0.69979 0.263079 0.756988
67 1 0.897835 0.559526 0.0463684
199 1 0.831301 0.510443 0.178237
274 1 0.909134 0.749878 0.059094
126 1 0.778749 0.659028 0.0971547
268 1 0.720524 0.656377 0.243604
263 1 0.917673 0.672886 0.19925
200 1 0.669417 0.538949 0.121036
227 1 0.901202 0.729048 0.340639
95 1 0.853601 0.586329 0.312451
320 2 0.779847 0.664626 0.403201
160 1 0.860515 0.675077 0.490417
354 2 0.97479 0.625815 0.29743
60 1 0.726388 0.528709 0.455587
154 1 0.691232 0.50925 0.282824
305 2 0.729147 0.589902 0.734867
238 1 0.733704 0.600884 0.602251
264 1 0.888639 0.55434 0.582536
117 1 0.94637 0.711406 0.632693
40 1 0.769813 0.73516 0.678786
158 1 0.854206 0.61965 0.734892
46 1 0.700269 0.72439 0.522219
39 1 0.716304 0.669203 0.824807
134 1 0.823758 0.700542 0.936338
78 1 0.924735 0.597213 0.88253
290 2 0.817886 0.578177 0.960766
32 1 0.765692 0.512649 0.863731
91 1 0.698845 0.625546 0.975209
1 1 0.959251 0.722192 0.795883
360 2 0.989342 0.520036 0.979987
17 1 0.867077 0.837954 0.246085
114 1 0.730709 0.807223 0.194492
338 2 0.69924 0.898086 0.0876772
201 1 0.835707 0.880019 0.0993537
101 1 0.724802 0.784646 0.0360156
330 2 0.932114 0.956705 0.100283
62 1 0.998362 0.848066 0.11813
229 1 0.886333 0.994243 0.221817
299 2 0.829304 0.758232 0.162086
104 1 0.908077 0.875053 0.411986
72 1 0.767583 0.909251 0.324601
283 1 0.736675 0.765279 0.351222
131 1 0.770434 0.953262 0.47968
325 2 0.768274 0.835347 0.450192
77 1 0.906168 0.839522 0.703714
102 1 0.757463 0.923053 0.650835
68 1 0.912537 0.927979 0.558509
204 1 0.998549 0.782955 0.509776
120 1 0.821254 0.806659 0.556965
187 1 0.954865 0.974899 0.741888
333 2 0.838256 0.936253 0.739399
218 1 0.753115 0.924948 0.968231
189 1 0.882152 0.918836 0.851601
25 1 0.813555 0.791614 0.825506
61 1 0.714678 0.930724 0.80337
42 1 0.950788 0.813251 0.920709
129 1 0.893207 0.998191 0.983501
ITEM: TIMESTEP
50000
ITEM: NUMBER OF ATOMS
360
ITEM: BOX BOUNDS pp pp pp
0.0000000000000000e+00 6.6943295008216896e+00
0.0000000000000000e+00 6.6943295008216896e+00
0.0000000000000000e+00 6.6943295008216896e+00
ITEM: ATOMS id type xs ys zs
208 1 0.222675 0.0769826 0.169379
344 2 0.134751 0.00104366 0.118191
96 1 0.26372 0.0402238 0.0314356
246 1 0.062607 0.108265 0.135343
18 1 0.171288 0.219641 0.125077
191 1 0.330988 0.179963 0.0931915
166 1 0.296459 0.223327 0.233906
235 1 0.133305 0.115406 0.00417252
334 2 0.108466 0.179411 0.248337
164 1 0.0332864 0.012549 0.0183266
108 1 0.232434 0.00837305 0.432144
153 1 0.0985985 0.0725695 0.410687
118 1 0.0408933 0.226492 0.399482
8 1 0.211617 0.124549 0.319342
55 1 0.212214 0.244103 0.429456
317 2 0.331608 0.0349132 0.336831
24 1 0.00835762 0.105674 0.28105
248 1 0.156364 0.183205 0.636215
282 1 0.0240437 0.146471 0.53773
51 1 0.157356 0.0261151 0.575757
175 1 0.289508 0.128103 0.555488
245 1 0.283311 0.235161 0.705418
50 1 0.0295271 0.0635892 0.663378
269 1 0.175 0.0343497 0.738921
356 2 0.163732 0.135028 0.513924
156 1 0.0583201 0.205601 0.746328
192 1 0.173824 0.159648 0.840538
291 2 0.0941348 0.0606425 0.901144
89 1 0.00597403 0.0452096 0.804779
228 1 0.244461 0.217006 0.970139
148 1 0.214782 0.0236344 0.888918
105 1 0.326164 0.0853536 0.752004
313 2 0.119775 0.237727 0.989181
226 1 0.27933 0.3255 0.0837519
290 2 0.0707231 0.311012 0.153525
85 1 0.181579 0.394013 0.191919
256 1 0.128368 0.352603 0.0487921
36 1 0.233969 0.470251 0.0466288
33 1 0.0608634 0.466509 0.124196
3 1 0.000732596 0.252894 0.0322979
222 1 0.0414132 0.368699 0.269905
207 1 0.12538 0.385897 0.422663
152 1 0.283066 0.467078 0.487134
250 1 0.235893 0.405965 0.328476
145 1 0.155315 0.27579 0.287778
287 1 0.145009 0.349992 0.676743
81 1 0.0328094 0.427554 0.5483
242 1 0.0327189 0.471499 0.684892
331 2 0.276161 0.392337 0.735843
286 1 0.0971986 0.270396 0.537575
329 2 0.179908 0.402011 0.532665
146 1 0.27236 0.328496 0.586004
160 1 0.225414 0.491348 0.655265
139 1 0.128557 0.439177 0.935152
183 1 0.209108 0.32308 0.825987
323 2 0.228645 0.345476 0.956274
353 2 0.0641992 0.329927 0.779016
27 1 0.0593301 0.303034 0.90558
35 1 0.281333 0.456455 0.864851
155 1 0.148446 0.485977 0.786737
351 2 0.170332 0.533136 0.130332
78 1 0.0124582 0.704807 0.0483239
285 1 0.317021 0.605878 0.10991
144 1 0.170853 0.661642 0.0417993
199 1 0.0415937 0.619906 0.16801
206 1 0.312724 0.508775 0.23701
337 2 0.301826 0.722864 0.161529
13 1 0.193444 0.64609 0.216909
214 1 0.0337338 0.510136 0.393251
227 1 0.0929024 0.650431 0.413345
2 1 0.209522 0.567764 0.352681
182 1 0.303228 0.737987 0.40423
312 2 0.210111 0.691881 0.337745
348 2 0.0950512 0.642119 0.288406
79 1 0.109616 0.509653 0.264633
273 1 0.123602 0.604385 0.659688
239 1 0.076529 0.728621 0.558008
253 1 0.0030886 0.588239 0.551079
112 1 0.300358 0.648515 0.689877
22 1 0.227676 0.664255 0.538733
116 1 0.0678025 0.740827 0.709915
97 1 0.142481 0.540219 0.507833
6 1 0.182688 0.656574 0.785814
210 1 0.188979 0.577774 0.91257
15 1 0.0601603 0.557234 0.999437
254 1 0.0542701 0.679732 0.907619
117 1 0.0189736 0.593793 0.781878
347 2 0.258149 0.547212 0.762015
332 2 0.145098 0.887114 0.248422
352 2 0.314583 0.989784 0.150886
197 1 0.220155 0.89976 0.139434
138 1 0.263417 0.792121 0.0493426
263 1 0.0585235 0.893767 0.125445
95 1 0.138571 0.778948 0.156508
230 1 0.105595 1.00003 0.245269
224 1 0.166462 0.921689 -0.000639104
241 1 0.121691 0.921175 0.378371
86 1 0.0171265 0.822513 0.449841
326 2 0.260467 0.85426 0.393535
70 1 0.240568 0.788506 0.263872
113 1 0.163176 0.780276 0.443457
274 1 0.0771608 0.775832 0.29582
5 1 0.253964 0.945139 0.278215
318 2 0.270248 0.772501 0.543115
311 2 0.0800711 0.864729 0.544823
265 1 0.321623 0.964432 0.613472
125 1 0.206216 0.891879 0.549028
7 1 0.199526 0.751449 0.646498
270 1 0.0588457 0.890057 0.682368
140 1 0.212444 0.892288 0.702176
188 1 0.0333888 0.976514 0.511206
357 2 0.233454 0.895967 0.872259
319 2 0.152393 0.806179 0.794187
52 1 0.288825 0.77183 0.797078
267 1 0.1099 0.919101 0.836348
172 1 0.194315 0.779604 0.917885
59 1 0.0557568 0.827919 0.964585
37 1 0.628137 0.119569 0.0999522
186 1 0.540423 0.0798654 0.22151
99 1 0.415184 0.0824969 0.0458951
87 1 0.377195 0.0856066 0.228202
216 1 0.485263 0.203713 0.142616
306 2 0.565869 0.231081 0.0496564
11 1 0.644533 0.192115 0.246077
203 1 0.462869 0.211854 0.296937
162 1 0.488113 0.235066 0.450476
277 1 0.357599 0.149475 0.392764
281 1 0.470054 0.0537835 0.364772
321 2 0.546743 0.152434 0.360069
252 1 0.379677 0.0211062 0.484947
173 1 0.633801 0.0459151 0.363855
209 1 0.652344 0.180175 0.432519
309 2 0.342386 0.243971 0.490783
21 1 0.556521 0.180076 0.618985
308 2 0.51423 0.10353 0.722202
119 1 0.399288 0.229059 0.597758
92 1 0.428278 0.0893004 0.637212
280 1 0.601362 0.0366506 0.670986
298 2 0.449586 0.135897 0.519498
194 1 0.559001 0.0720292 0.502601
34 1 0.538162 0.12091 0.968746
174 1 0.585107 0.221702 0.790367
294 2 0.465475 0.177669 0.866451
178 1 0.454941 0.0608758 0.821518
198 1 0.345061 0.135698 0.899114
16 1 0.606919 0.0615528 0.822926
124 1 0.448206 0.246175 0.998516
29 1 0.658579 0.197892 0.927048
103 1 0.431427 0.213918 0.751467
324 2 0.391197 0.292611 0.137957
288 1 0.56608 0.32157 0.216941
154 1 0.617865 0.465714 0.157823
181 1 0.502502 0.356456 0.083444
211 1 0.374873 0.362952 0.24215
244 1 0.377458 0.440646 0.102631
293 2 0.498262 0.489639 0.0921584
47 1 0.369808 0.306647 0.381577
94 1 0.389658 0.457074 0.374677
137 1 0.624069 0.457813 0.331305
276 1 0.598764 0.301166 0.364533
338 2 0.482715 0.345005 0.331323
193 1 0.537186 0.415652 0.437756
200 1 0.496271 0.450449 0.253347
346 2 0.436438 0.487004 0.493328
247 1 0.490386 0.474874 0.607207
266 1 0.406919 0.357313 0.519099
48 1 0.409432 0.360081 0.695443
170 1 0.532219 0.324493 0.593466
340 2 0.617916 0.417851 0.593775
292 2 0.511237 0.293671 0.705177
355 2 0.33847 0.43477 0.606284
45 1 0.653419 0.33588 0.705508
31 1 0.543869 0.422214 0.74186
325 2 0.412356 0.405722 0.812632
106 1 0.475421 0.318749 0.869083
76 1 0.554036 0.436373 0.956941
259 1 0.623718 0.354168 0.852586
185 1 0.366515 0.3911 0.960729
41 1 0.342021 0.282256 0.834008
133 1 0.65767 0.54322 0.0361074
322 2 0.437031 0.626085 0.063363
130 1 0.443613 0.572227 0.182755
88 1 0.428229 0.72903 0.142106
107 1 0.581406 0.677341 0.11502
305 2 0.570345 0.562145 0.231029
115 1 0.531093 0.68654 0.258192
180 1 0.602249 0.676696 0.417164
307 2 0.473157 0.636429 0.489111
75 1 0.353448 0.604065 0.446758
20 1 0.520414 0.565887 0.363128
142 1 0.349045 0.667129 0.274063
23 1 0.460499 0.746984 0.405747
190 1 0.448009 0.674761 0.713173
102 1 0.545109 0.660242 0.588442
238 1 0.606961 0.549081 0.678171
176 1 0.379295 0.727074 0.548435
9 1 0.354444 0.559197 0.59198
302 2 0.485564 0.561146 0.712482
66 1 0.590657 0.533555 0.517385
147 1 0.376626 0.502321 0.730475
53 1 0.637973 0.663184 0.946447
135 1 0.584116 0.665547 0.789586
101 1 0.468233 0.525455 0.853132
272 1 0.504469 0.721885 0.986122
295 2 0.446427 0.647275 0.898555
168 1 0.629057 0.518699 0.856307
258 1 0.527264 0.570787 0.999602
73 1 0.357579 0.687792 0.976017
165 1 0.369284 0.532636 0.979512
100 1 0.342127 0.616867 0.83431
157 1 0.627579 0.935913 0.236398
26 1 0.453828 0.965953 0.175016
184 1 0.54235 0.825398 0.118491
284 1 0.39382 0.923316 0.0553519
67 1 0.364631 0.857002 0.19507
349 2 0.424112 0.803315 0.0114749
63 1 0.548933 0.98396 0.0421014
202 1 0.656249 0.766418 0.219511
358 2 0.622084 0.796268 0.0019094
110 1 0.610928 0.823336 0.357027
149 1 0.516228 0.926865 0.447986
251 1 0.367098 0.867172 0.495961
339 2 0.514061 0.96555 0.298463
10 1 0.382266 0.918302 0.352883
343 2 0.35967 0.789309 0.317203
82 1 0.663648 0.928302 0.459647
84 1 0.489752 0.836471 0.271097
233 1 0.649604 0.852922 0.5986
136 1 0.482806 0.950586 0.617254
177 1 0.524621 0.793543 0.702721
64 1 0.364028 0.828307 0.656026
12 1 0.513272 0.794025 0.547122
330 2 0.611014 0.973308 0.569145
316 2 0.404794 0.995539 0.711325
260 1 0.603809 0.794616 0.862838
39 1 0.442185 0.761575 0.845825
4 1 0.333787 0.926347 0.793037
25 1 0.660697 0.91017 0.747356
44 1 0.50445 0.882746 0.940119
218 1 0.639329 0.940633 0.910284
196 1 0.498392 0.910896 0.788753
225 1 0.373923 0.984616 0.925769
255 1 0.335388 0.838656 0.922141
262 1 0.990618 0.227227 0.205669
127 1 0.857897 0.134297 0.20033
57 1 0.780002 0.181147 0.0654914
163 1 0.719751 0.0578225 0.221236
129 1 0.917558 0.117761 0.0575942
159 1 0.949078 0.00775073 0.170872
236 1 0.933622 0.098539 0.42191
68 1 0.80436 0.0176734 0.443793
80 1 0.78205 0.142362 0.331244
143 1 0.895496 0.24599 0.338202
62 1 0.865493 0.0119222 0.305068
350 2 0.989974 0.00719508 0.354862
345 2 0.797442 0.132968 0.629959
189 1 0.698761 0.144482 0.71061
220 1 0.693923 0.0886122 0.535962
237 1 0.915886 0.175854 0.644136
71 1 0.697587 0.236798 0.568556
221 1 0.871449 0.0637267 0.725478
223 1 0.831409 0.189394 0.504624
128 1 0.80306 0.242036 0.712473
275 1 0.880377 0.0170219 0.568047
93 1 0.868679 0.244076 0.953436
123 1 0.714132 0.0616066 0.97891
42 1 0.749111 0.0269231 0.809484
74 1 0.78647 0.167548 0.841801
141 1 0.854926 0.0611321 0.930747
301 2 0.921262 0.158465 0.797911
98 1 0.988689 0.149786 0.904347
215 1 0.840759 0.361506 0.0297852
69 1 0.66203 0.305159 0.0901319
303 2 0.889164 0.250627 0.0950075
83 1 0.946072 0.361934 0.142503
304 2 0.82371 0.412657 0.169718
213 1 0.811914 0.278023 0.18411
167 1 0.708406 0.377864 0.239173
195 1 0.991527 0.420525 0.00527478
90 1 0.92666 0.499142 0.206497
219 1 0.847557 0.38986 0.292784
109 1 0.759987 0.295486 0.420871
354 2 0.74854 0.422806 0.357343
60 1 0.820515 0.434999 0.456082
171 1 0.973272 0.36928 0.402955
336 2 0.930822 0.485742 0.481849
243 1 0.673013 0.381317 0.496564
289 2 0.75965 0.273948 0.304535
1 1 0.893912 0.482764 0.623368
40 1 0.892686 0.409234 0.751529
19 1 0.992232 0.328589 0.659331
49 1 0.734651 0.499732 0.590861
278 1 0.802944 0.361307 0.598926
179 1 0.929792 0.301541 0.525298
43 1 0.944229 0.281167 0.793157
341 2 0.941272 0.364452 0.904126
126 1 0.782934 0.328652 0.848208
32 1 0.868736 0.458163 0.918802
169 1 0.716785 0.404009 0.972241
335 2 0.738873 0.283192 0.990208
14 1 0.997772 0.448404 0.835883
111 1 0.738042 0.454879 0.75712
268 1 0.715347 0.6224 0.15073
72 1 0.871067 0.711562 0.070119
299 2 0.85081 0.593304 0.165777
257 1 0.784051 0.508577 0.096533
240 1 0.919295 0.565589 0.0484184
279 1 0.968788 0.64471 0.293828
38 1 0.790053 0.694731 0.409922
283 1 0.942114 0.696735 0.440641
121 1 0.879289 0.548298 0.367078
46 1 0.72251 0.544848 0.410008
271 1 0.815278 0.673593 0.258378
232 1 0.767717 0.516589 0.258422
58 1 0.669325 0.635559 0.293867
264 1 0.84978 0.583612 0.518254
151 1 0.927107 0.647846 0.682385
204 1 0.785398 0.61013 0.673977
104 1 0.824196 0.73248 0.56439
297 2 0.954769 0.718391 0.578606
120 1 0.694252 0.64553 0.538117
77 1 0.674565 0.723723 0.684974
217 1 0.905786 0.69137 0.901012
122 1 0.803423 0.606744 0.973071
158 1 0.730008 0.629543 0.819588
359 2 0.96598 0.554875 0.917022
91 1 0.844908 0.725417 0.774976
150 1 0.858658 0.555304 0.803508
315 2 0.761927 0.51878 0.874371
360 2 0.988723 0.712019 0.802694
132 1 0.764297 0.874568 0.209503
201 1 0.930797 0.869716 0.0605174
54 1 0.667689 0.898435 0.0761176
342 2 0.888388 0.868726 0.216714
114 1 0.810282 0.995932 0.0976455
17 1 0.723235 0.761734 0.0661659
30 1 0.968769 0.77393 0.18075
314 2 0.799732 0.763291 0.167741
300 2 0.878384 0.794515 0.469785
249 1 0.895189 0.798855 0.331248
205 1 0.907675 0.920604 0.418074
65 1 0.771155 0.872813 0.372217
229 1 0.994322 0.899938 0.281482
320 2 0.738975 0.777156 0.30701
327 2 0.746434 0.98344 0.330889
187 1 0.689957 0.773028 0.479105
61 1 0.790721 0.878787 0.524487
212 1 0.752476 0.986368 0.641928
161 1 0.93717 0.844174 0.579736
131 1 0.806336 0.83739 0.684382
28 1 0.925307 0.92392 0.7216
310 2 0.945771 0.786833 0.690374
234 1 0.986879 0.839423 0.823077
56 1 0.792786 0.876875 0.836631
231 1 0.786305 0.900239 0.979512
328 2 0.868797 0.988442 0.819112
261 1 0.926968 0.938475 0.911772
296 2 0.719578 0.773956 0.785759
134 1 0.749663 0.757959 0.912953
333 2 0.857807 0.803953 0.952356
ITEM: TIMESTEP
100000
ITEM: NUMBER OF ATOMS
360
ITEM: BOX BOUNDS pp pp pp
0.0000000000000000e+00 6.6943295008216896e+00
0.0000000000000000e+00 6.6943295008216896e+00
0.0000000000000000e+00 6.6943295008216896e+00
ITEM: ATOMS id type xs ys zs
191 1 0.223312 0.0693417 0.032218
93 1 0.0579245 0.168342 0.118869
129 1 0.0851894 0.00669613 0.0728401
166 1 0.191377 0.2318 0.0603709
352 2 0.164199 0.100607 0.141916
5 1 0.109033 0.0422612 0.259017
63 1 0.318758 0.160991 0.131697
338 2 0.325927 0.238612 0.0332219
318 2 0.228839 0.0346119 0.464491
216 1 0.315579 0.241159 0.359945
334 2 0.320304 0.145285 0.26086
250 1 0.128372 0.116688 0.398771
277 1 0.272272 0.15025 0.484406
24 1 -0.00316952 0.187512 0.471109
108 1 0.258646 0.0506302 0.338075
236 1 0.00524503 0.167788 0.295648
173 1 0.0144078 0.0282207 0.460267
85 1 0.191788 0.178565 0.258227
175 1 0.171428 0.106092 0.576646
192 1 0.0827151 0.162366 0.706332
92 1 0.238958 0.241173 0.633663
245 1 0.283277 0.001121 0.585676
286 1 0.232802 0.104905 0.716592
50 1 0.0135638 0.056239 0.625944
118 1 0.0987157 0.247984 0.582839
269 1 0.244658 0.167473 0.899217
353 2 0.1379 0.11673 0.829382
98 1 0.0474465 0.0139286 0.914081
208 1 0.107317 0.152823 0.95521
148 1 0.210651 0.0211677 0.87522
124 1 0.333553 0.220534 0.77866
34 1 -0.0039311 0.207933 0.852818
156 1 0.161527 0.254716 0.785405
61 1 0.0909644 0.0105818 0.759746
79 1 0.303155 0.443107 0.214208
211 1 0.258997 0.292654 0.182681
18 1 0.103756 0.34323 0.0597127
226 1 0.102192 0.286718 0.215378
13 1 0.0498255 0.432035 0.223643
172 1 0.159839 0.456081 0.133324
165 1 0.323981 0.370562 0.0692617
309 2 0.196424 0.41966 0.447432
97 1 0.0695399 0.444677 0.372257
266 1 0.209168 0.366387 0.299538
145 1 0.087442 0.288503 0.368898
146 1 0.207657 0.275499 0.453788
351 2 0.148282 0.496936 0.269724
75 1 0.316275 0.396247 0.418527
19 1 0.142205 0.382253 0.673495
22 1 0.248602 0.400385 0.557914
325 2 0.168945 0.486145 0.741209
356 2 0.272031 0.318553 0.743394
253 1 0.0964038 0.375416 0.507964
105 1 0.284261 0.442234 0.705107
341 2 0.0224251 0.458354 0.719898
223 1 0.00400154 0.327881 0.726114
183 1 0.184818 0.433406 0.974061
228 1 0.100559 0.292201 0.922857
256 1 0.0541222 0.43943 0.849693
155 1 0.194088 0.393616 0.814746
210 1 0.263542 0.303824 0.922215
164 1 0.0878149 0.580438 0.18953
101 1 0.282606 0.524096 0.0549634
270 1 0.299875 0.683919 0.113623
347 2 0.186631 0.595962 0.102949
241 1 0.197 0.748633 0.232794
95 1 0.231957 0.586595 0.221868
116 1 0.1078 0.589349 0.0127362
141 1 0.152549 0.730859 0.0730248
336 2 0.168571 0.663579 0.43857
150 1 0.166988 0.551266 0.466544
177 1 0.125479 0.613113 0.328557
206 1 0.264276 0.671367 0.347532
214 1 0.0508497 0.642175 0.50123
36 1 0.254308 0.509321 0.349719
239 1 0.009261 0.730988 0.376978
7 1 0.315537 0.629785 0.49095
302 2 0.304288 0.501319 0.482679
314 2 0.0693499 0.707902 0.257865
20 1 0.131808 0.66975 0.637604
273 1 0.213124 0.541146 0.605068
122 1 0.0785714 0.494468 0.595535
14 1 0.0696992 0.566955 0.740909
28 1 0.220798 0.600359 0.745649
359 2 0.24113 0.732944 0.704917
300 2 0.0400703 0.68318 0.730003
26 1 0.203239 0.745873 0.526109
52 1 0.238698 0.627815 0.956494
196 1 0.271905 0.720221 0.836646
254 1 0.160335 0.536947 0.867585
89 1 0.0245072 0.704226 0.852804
112 1 0.312049 0.512189 0.862976
296 2 0.151351 0.662213 0.841815
360 2 0.00127496 0.564253 0.848574
310 2 0.0529919 0.719837 0.96784
96 1 0.134447 0.871309 0.142494
263 1 0.00939142 0.79415 0.172435
344 2 0.0477418 0.950271 0.189906
64 1 0.214826 0.915916 0.0107641
284 1 0.328748 0.848487 0.147404
230 1 0.234289 0.992432 0.172859
66 1 0.0690826 0.863013 0.00200011
70 1 0.262063 0.884442 0.297952
113 1 0.229313 0.889274 0.484081
291 2 0.0329949 0.848367 0.423347
205 1 0.069889 0.869132 0.287195
153 1 0.131164 0.967161 0.395685
84 1 0.158108 0.77283 0.380394
140 1 0.213323 0.858141 0.635275
104 1 0.0700475 0.812739 0.532175
125 1 0.115932 0.963293 0.545039
151 1 0.0581393 0.893163 0.670585
282 1 0.273329 0.957833 0.736824
298 2 0.17737 0.991066 0.655269
190 1 0.335472 0.814307 0.730551
204 1 0.131667 0.771114 0.752432
255 1 0.301825 0.768893 0.984042
248 1 0.254002 0.87472 0.863513
234 1 0.0358302 0.863389 0.832186
350 2 0.136359 0.910531 0.906964
117 1 0.162834 0.765761 0.92386
339 2 0.301231 0.993107 0.967142
324 2 0.144603 0.892691 0.765067
115 1 0.619407 0.0374436 0.117804
163 1 0.457641 0.105522 0.111434
288 1 0.586241 0.207247 0.156994
320 2 0.569891 0.139907 0.0526471
225 1 0.353764 0.00285489 0.0849033
8 1 0.375495 0.0136993 0.225833
54 1 0.444013 0.190047 0.253317
317 2 0.538522 0.114833 0.450741
87 1 0.411957 0.0910955 0.379119
11 1 0.564767 0.16656 0.338702
326 2 0.60463 0.0431648 0.362704
119 1 0.459253 0.247556 0.418107
136 1 0.616754 0.213218 0.493098
212 1 0.608232 0.0276314 0.498432
357 2 0.393017 0.158733 0.489428
186 1 0.513337 0.0389404 0.260106
252 1 0.487229 0.180591 0.575351
265 1 0.523179 0.0575106 0.655163
47 1 0.451812 0.0366991 0.523295
25 1 0.372712 0.112638 0.658881
174 1 0.487419 0.194621 0.734063
189 1 0.609993 0.242206 0.640261
37 1 0.631001 0.133978 0.744085
181 1 0.362265 0.124049 0.985197
221 1 0.611147 0.129003 0.911738
123 1 0.476795 0.159363 0.891296
71 1 0.504544 0.0448741 0.816787
35 1 0.341719 0.0717646 0.818558
218 1 0.49681 0.0272193 0.989553
304 2 0.669487 0.278921 0.223239
130 1 0.576693 0.378747 0.11843
193 1 0.444469 0.426174 0.172882
343 2 0.467087 0.376815 0.0277571
200 1 0.429734 0.269053 0.106863
202 1 0.560406 0.270144 0.00327527
107 1 0.657122 0.425727 0.248281
292 2 0.446876 0.393079 0.462302
160 1 0.555337 0.47005 0.49233
170 1 0.486974 0.437244 0.346348
194 1 0.587103 0.335792 0.403618
55 1 0.38972 0.337261 0.279361
329 2 0.368492 0.464943 0.314363
355 2 0.607802 0.465689 0.380444
276 1 0.550771 0.312796 0.259715
74 1 0.604013 0.440875 0.641498
297 2 0.463189 0.482627 0.665647
41 1 0.392655 0.451506 0.560522
280 1 0.379548 0.307815 0.665784
21 1 0.504813 0.338327 0.567088
106 1 0.501613 0.359381 0.733142
103 1 0.362742 0.27931 0.527701