ITEM: TIMESTEP
0
ITEM: NUMBER OF ATOMS
360
ITEM: BOX BOUNDS pp pp pp
0.0000000000000000e+00 6.6943295008216896e+00
0.0000000000000000e+00 6.6943295008216896e+00
0.0000000000000000e+00 6.6943295008216896e+00
ITEM: ATOMS id type xs ys zs
30 1 0.186823 0.166903 0.13297
5 1 0.0326467 0.115631 0.230095
324 2 0.214745 0.0545812 0.0774317
351 2 0.0749349 0.200052 0.144665
86 1 0.10058 0.0379346 0.0375463
314 2 0.309825 0.189834 0.100173
205 1 0.296489 0.0818067 0.173922
216 1 0.0861165 0.172591 0.35909
108 1 0.241816 0.201446 0.352814
22 1 0.178828 0.188777 0.499422
250 1 0.180856 0.0478232 0.427897
70 1 0.320497 0.067895 0.384031
308 2 0.290178 0.00267099 0.27608
211 1 0.172522 0.0692981 0.282455
148 1 0.168947 0.181721 0.645795
151 1 0.176811 0.0363221 0.582049
179 1 0.05284 0.094997 0.511678
117 1 0.200824 0.0565974 0.72854
87 1 0.306707 0.223563 0.569204
306 2 0.0796376 0.0601378 0.676927
277 1 0.312585 0.0836529 0.620787
327 2 0.268397 0.0934616 0.50657
360 2 0.13697 0.160192 0.764985
18 1 0.100954 0.181981 0.991468
352 2 0.18601 0.215277 0.893062
246 1 0.146291 0.0746887 0.873896
34 1 0.0135602 0.0706363 0.780387
191 1 0.255914 0.131305 0.978706
294 2 0.290332 0.0369714 0.895973
286 1 0.28611 0.17922 0.776714
43 1 0.0253671 0.248727 0.803749
276 1 0.198911 0.417424 0.0296478
55 1 0.249103 0.27947 0.0347131
145 1 0.245411 0.422449 0.179483
13 1 0.089444 0.415443 0.172884
266 1 0.0953929 0.300402 0.079527
63 1 0.258031 0.278872 0.196394
302 2 0.0676594 0.441536 0.420339
41 1 0.253321 0.350363 0.336617
95 1 0.127801 0.453896 0.312035
36 1 0.197031 0.449333 0.461777
25 1 0.107924 0.316482 0.428129
341 2 0.236984 0.31678 0.472185
97 1 0.105716 0.292722 0.256398
207 1 0.00536684 0.37809 0.332839
256 1 0.167551 0.446146 0.709726
156 1 0.214848 0.330108 0.596631
139 1 0.0817036 0.29688 0.667
339 2 0.104919 0.284887 0.546629
206 1 0.0753557 0.408526 0.560574
105 1 0.327967 0.43818 0.60903
19 1 0.320169 0.329291 0.710832
336 2 0.019288 0.412038 0.694312
342 2 0.283105 0.350173 0.832424
76 1 0.208098 0.446592 0.856847
122 1 0.0602545 0.397663 0.81974
183 1 0.0611004 0.427413 0.96079
235 1 0.150725 0.322207 0.926963
208 1 0.179515 0.292706 0.779072
155 1 0.324924 0.497582 0.77106
94 1 0.0722825 0.562043 0.211335
224 1 0.0288544 0.699933 0.111871
138 1 0.179581 0.65898 0.0718872
101 1 0.2975 0.528606 0.0712396
154 1 0.0446715 0.544896 0.0525497
343 2 0.165496 0.516417 0.131675
170 1 0.246125 0.58122 0.217978
225 1 0.186296 0.723624 0.23064
285 1 0.327682 0.661478 0.133776
84 1 0.158272 0.704768 0.455147
332 2 0.199428 0.585477 0.45837
177 1 0.070254 0.556088 0.487946
116 1 0.128355 0.612694 0.345334
152 1 0.292037 0.648683 0.378056
214 1 0.313235 0.552148 0.483106
278 1 0.00320076 0.674962 0.412409
7 1 0.293975 0.503423 0.336182
291 2 0.131678 0.632473 0.569568
111 1 0.0292014 0.531814 0.626671
26 1 0.25391 0.655203 0.57253
1 1 0.235741 0.604777 0.72563
204 1 0.10242 0.67945 0.686194
102 1 0.191022 0.526152 0.588998
125 1 0.0205672 0.718674 0.557697
300 2 0.328104 0.688536 0.690227
112 1 0.187246 0.557651 0.945654
323 2 0.268358 0.595264 0.85405
14 1 0.098514 0.562596 0.802473
254 1 0.167105 0.685174 0.851046
172 1 0.0325257 0.687231 0.965543
52 1 0.28632 0.678436 0.973441
272 1 0.129233 0.819996 0.130733
239 1 0.0631637 0.953456 0.15961
270 1 0.277261 0.796493 0.105195
310 2 0.110515 0.917802 0.0361103
89 1 0.00769487 0.848305 0.0629471
263 1 0.21519 0.946964 0.134515
118 1 0.17994 0.872731 0.418806
298 2 0.00577276 0.816529 0.462993
159 1 0.0849399 0.958843 0.32563
113 1 0.0783671 0.788184 0.337766
61 1 0.0528838 0.957488 0.471986
319 2 0.208473 0.750081 0.354207
241 1 0.220005 0.888094 0.270067
157 1 0.306919 0.766513 0.478356
282 1 0.27056 0.936542 0.666749
245 1 0.189786 0.789492 0.579471
192 1 0.110985 0.931605 0.710262
353 2 0.131629 0.810486 0.691764
50 1 0.0559649 0.864288 0.590414
196 1 0.236871 0.77458 0.735699
318 2 0.159882 0.908942 0.54802
175 1 0.305164 0.968813 0.516036
140 1 0.333301 0.806111 0.62022
15 1 0.107318 0.820258 0.831271
64 1 0.2274 0.934213 0.822352
230 1 0.0609575 0.932519 0.912288
248 1 0.282763 0.813152 0.88808
255 1 0.224694 0.9402 0.976284
142 1 0.142709 0.78776 0.979023
262 1 0.554538 0.147242 0.0808221
62 1 0.489273 0.0148801 0.0790323
21 1 0.567505 0.236 0.214445
96 1 0.428434 0.150878 0.18215
181 1 0.401816 0.145092 0.0158713
17 1 0.602529 0.0122664 0.194981
163 1 0.639235 0.0055451 0.0245883
65 1 0.583955 0.039365 0.355437
114 1 0.462627 0.142929 0.362299
212 1 0.57737 0.137642 0.477405
167 1 0.611114 0.23981 0.378186
149 1 0.461568 0.0111243 0.443644
334 2 0.558946 0.115483 0.258606
317 2 0.343799 0.206117 0.429408
344 2 0.359461 0.119764 0.279977
69 1 0.435059 0.0126837 0.269457
11 1 0.377473 0.245636 0.288022
198 1 0.551083 0.161976 0.631337
316 2 0.478195 0.0644234 0.704545
269 1 0.407245 0.181735 0.673369
173 1 0.643804 0.0113444 0.52906
12 1 0.600524 0.0165991 0.673911
174 1 0.426109 0.152514 0.520438
178 1 0.45892 0.0255797 0.592686
358 2 0.437299 0.0324069 0.968953
165 1 0.557434 0.112192 0.927819
71 1 0.403528 0.112781 0.873473
221 1 0.662948 0.108698 0.787357
265 1 0.521743 0.165548 0.786204
190 1 0.356896 0.0313176 0.761865
166 1 0.338442 0.249796 0.906093
325 2 0.416951 0.228565 0.80769
186 1 0.540207 0.315196 0.0588476
54 1 0.387341 0.275218 0.125142
200 1 0.566894 0.473583 0.0613972
107 1 0.417969 0.422697 0.0671039
109 1 0.499299 0.379601 0.195457
304 2 0.368261 0.356705 0.217811
338 2 0.418434 0.312263 0.00180634
135 1 0.62468 0.493525 0.206598
252 1 0.343358 0.385591 0.461736
189 1 0.46484 0.281177 0.430083
329 2 0.588634 0.348621 0.447408
103 1 0.412428 0.387752 0.329332
330 2 0.65361 0.499221 0.471868
356 2 0.527408 0.308659 0.310325
23 1 0.561018 0.44024 0.365527
99 1 0.550817 0.295666 0.698767
247 1 0.625106 0.442928 0.582558
136 1 0.43333 0.318885 0.586565
100 1 0.478875 0.462063 0.669024
56 1 0.571893 0.299201 0.55572
322 2 0.603539 0.486872 0.6936
194 1 0.493044 0.422495 0.501014
185 1 0.616988 0.366062 0.949361
77 1 0.580884 0.396662 0.805352
193 1 0.4985 0.282675 0.914938
124 1 0.495081 0.444383 0.935141
280 1 0.420332 0.375582 0.814711
210 1 0.342194 0.392886 0.945625
35 1 0.635289 0.250487 0.851629
162 1 0.456257 0.591345 0.0688187
258 1 0.551428 0.645346 0.173772
257 1 0.607488 0.630346 0.034189
296 2 0.39831 0.719589 0.0354322
312 2 0.500905 0.529295 0.162727
119 1 0.386021 0.503327 0.204588
88 1 0.44948 0.556338 0.412715
132 1 0.567063 0.60745 0.32335
326 2 0.552155 0.671258 0.431248
182 1 0.418979 0.629718 0.27895
359 2 0.37496 0.6626 0.475846
346 2 0.464401 0.502402 0.299298
274 1 0.666572 0.644008 0.455626
233 1 0.436121 0.737332 0.401243
67 1 0.538462 0.747233 0.292111
2 1 0.618758 0.727023 0.580969
20 1 0.542174 0.616432 0.669194
51 1 0.478097 0.718835 0.547055
110 1 0.370442 0.586966 0.637313
292 2 0.426427 0.510648 0.544848
46 1 0.535547 0.564983 0.536489
137 1 0.609387 0.725556 0.737699
347 2 0.415472 0.595632 0.743454
264 1 0.461921 0.692519 0.932703
9 1 0.607454 0.661162 0.888859
28 1 0.365831 0.682043 0.818363
287 1 0.507394 0.542697 0.814905
79 1 0.383247 0.551561 0.925705
289 2 0.497775 0.692805 0.808315
307 2 0.525449 0.58852 0.955696
160 1 0.652406 0.572621 0.757776
141 1 0.395516 0.835914 0.00916271
284 1 0.531698 0.88514 0.152272
184 1 0.370816 0.893356 0.183371
44 1 0.620936 0.765518 0.155971
134 1 0.443803 0.758889 0.152652
39 1 0.549762 0.784551 0.0143777
8 1 0.34537 0.98558 0.0567406
127 1 0.606791 0.797001 0.45053
320 2 0.575197 0.930995 0.463303
115 1 0.50373 0.883257 0.367122
74 1 0.346052 0.770152 0.275625
10 1 0.35076 0.916128 0.375837
168 1 0.630613 0.883766 0.263758
357 2 0.457872 0.857223 0.256663
147 1 0.449904 0.750463 0.698724
47 1 0.456684 0.863821 0.512304
260 1 0.425576 0.907529 0.694922
187 1 0.572503 0.888389 0.591204
301 2 0.535046 0.85939 0.740933
73 1 0.448044 0.812261 0.846225
53 1 0.600333 0.825682 0.857937
16 1 0.376602 0.940616 0.890359
201 1 0.504542 0.919472 0.956688
218 1 0.498211 0.976924 0.804403
340 2 0.628544 0.886959 0.972453
37 1 0.635065 0.977435 0.874727
350 2 0.357808 0.830454 0.756655
321 2 0.874924 0.221999 0.211291
219 1 0.698815 0.107584 0.10963
226 1 0.855973 0.107091 0.149315
42 1 0.971032 0.174008 0.0654296
57 1 0.790584 0.0117274 0.0396122
98 1 0.750464 0.00491996 0.203889
213 1 0.744114 0.24251 0.191605
129 1 0.945725 0.0047301 0.055894
24 1 0.941961 0.245128 0.354606
80 1 0.869726 0.154071 0.452748
209 1 0.71129 0.100117 0.41424
236 1 0.848172 0.124574 0.305056
85 1 0.983172 0.0706096 0.383639
281 1 0.687145 0.123142 0.266185
229 1 0.771912 0.243402 0.340918
92 1 0.997674 0.235202 0.502896
313 2 0.929821 0.22846 0.732174
45 1 0.996757 0.168517 0.639533
345 2 0.914202 0.0827067 0.555732
195 1 0.860644 0.0886538 0.687574
203 1 0.842648 0.220056 0.60364
188 1 0.801289 0.0349695 0.550091
303 2 0.767791 0.15648 0.523408
128 1 0.703921 0.141381 0.633989
354 2 0.741759 0.0274656 0.68296
237 1 0.992597 0.104913 0.921849
228 1 0.721798 0.11533 0.93831
223 1 0.880615 0.130357 0.830405
126 1 0.783007 0.223664 0.760301
311 2 0.902687 0.0118801 0.788671
305 2 0.85772 0.152218 0.963106
93 1 0.969001 0.403989 0.073428
144 1 0.831099 0.401993 0.132504
222 1 0.975527 0.284743 0.180746
58 1 0.947153 0.483606 0.217964
288 1 0.680972 0.370121 0.124151
215 1 0.839996 0.267456 0.0635948
49 1 0.797359 0.497949 0.241868
202 1 0.683177 0.250525 0.020537
121 1 0.699651 0.374199 0.285653
75 1 0.861912 0.307821 0.456484
180 1 0.698276 0.389553 0.434618
83 1 0.846989 0.460273 0.375604
143 1 0.854656 0.340807 0.259674
309 2 0.981555 0.348138 0.457985
232 1 0.736585 0.459223 0.699282
150 1 0.801449 0.390531 0.569316
355 2 0.830517 0.349289 0.703992
273 1 0.945003 0.346256 0.608988
259 1 0.707989 0.311795 0.653218
48 1 0.710011 0.267011 0.50811
81 1 0.943875 0.463306 0.500775
40 1 0.913757 0.412668 0.935299
123 1 0.773684 0.395664 0.9919
217 1 0.762275 0.401264 0.840197
169 1 0.835922 0.265741 0.916273
171 1 0.911711 0.339807 0.790733
275 1 0.99547 0.285019 0.945247
197 1 0.946046 0.490282 0.75865
227 1 0.688599 0.636231 0.234373
315 2 0.96037 0.592447 0.130396
240 1 0.888232 0.715741 0.025203
335 2 0.730614 0.651577 0.115902
130 1 0.839547 0.613082 0.153309
158 1 0.715182 0.527049 0.0911949
293 2 0.900646 0.731709 0.153659
244 1 0.882386 0.544825 0.0287049
90 1 0.9828 0.537956 0.353221
268 1 0.818013 0.628198 0.390684
120 1 0.69062 0.52888 0.350687
164 1 0.997406 0.680916 0.258589
290 2 0.889786 0.598889 0.267885
32 1 0.848163 0.726961 0.273505
238 1 0.778868 0.515604 0.496211
60 1 0.942961 0.648909 0.682763
249 1 0.917827 0.607662 0.523522
176 1 0.681233 0.576053 0.613617
27 1 0.858076 0.529498 0.631032
279 1 0.786316 0.667483 0.544143
82 1 0.747432 0.744893 0.674405
106 1 0.675095 0.514148 0.928919
295 2 0.999559 0.633357 0.807788
242 1 0.885057 0.681747 0.865526
331 2 0.735752 0.591169 0.855803
33 1 0.992539 0.555971 0.905086
243 1 0.740474 0.731649 0.841326
6 1 0.832954 0.528725 0.885455
31 1 0.770594 0.626828 0.988612
297 2 0.850663 0.727206 0.751344
251 1 0.808689 0.600035 0.752152
66 1 0.862855 0.873743 0.0789947
59 1 0.965106 0.840307 0.213622
199 1 0.699417 0.891064 0.120313
72 1 0.781835 0.769842 0.12798
146 1 0.928054 0.992521 0.242421
328 2 0.824813 0.859496 0.387601
283 1 0.949826 0.898325 0.373084
348 2 0.956395 0.76237 0.352017
253 1 0.82483 0.998079 0.387364
271 1 0.740155 0.76777 0.386914
3 1 0.805807 0.877108 0.265527
133 1 0.696269 0.920268 0.41015
161 1 0.880665 0.765515 0.460554
299 2 0.688222 0.990715 0.305462
337 2 0.721002 0.789005 0.253891
131 1 0.739579 0.82871 0.533371
231 1 0.67485 0.880181 0.719599
267 1 0.90109 0.796335 0.630628
68 1 0.829188 0.931606 0.685886
153 1 0.890376 0.919787 0.504237
220 1 0.979019 0.993756 0.618351
234 1 0.954237 0.821467 0.92507
4 1 0.837855 0.848345 0.811971
333 2 0.706554 0.882443 0.836684
261 1 0.98171 0.911239 0.767372
38 1 0.762869 0.893853 0.951894
104 1 0.982325 0.756832 0.772123
91 1 0.89464 0.964467 0.912331
349 2 0.8256 0.771536 0.933913
78 1 0.707793 0.763384 0.980957
29 1 0.774524 0.994291 0.817307
ITEM: TIMESTEP
60000
ITEM: NUMBER OF ATOMS
360
ITEM: BOX BOUNDS pp pp pp
0.0000000000000000e+00 6.6943295008216896e+00
0.0000000000000000e+00 6.6943295008216896e+00
0.0000000000000000e+00 6.6943295008216896e+00
ITEM: ATOMS id type xs ys zs
98 1 0.127842 0.166189 0.186819
30 1 0.0431503 0.0589952 0.0161554
262 1 0.185244 0.0782104 0.082953
18 1 0.251517 0.226848 0.0922386
358 2 0.100888 0.169644 0.0582174
89 1 0.0795718 0.0221229 0.180169
293 2 0.286887 0.242325 0.231415
305 2 0.00618658 0.12148 0.137576
5 1 0.15235 0.171092 0.339759
11 1 0.269871 0.144632 0.436147
356 2 0.101576 0.169998 0.449738
216 1 0.0469779 0.0483383 0.385205
69 1 0.323743 0.24108 0.343093
179 1 0.200784 0.0272087 0.351026
263 1 0.272722 0.130349 0.248444
139 1 0.219778 0.110158 0.663604
308 2 0.0989037 0.14434 0.604259
341 2 0.249461 0.0715095 0.545565
22 1 0.194499 0.211349 0.55181
273 1 0.0526815 0.00811764 0.630793
352 2 0.325517 0.164563 0.724048
117 1 0.324854 0.000524454 0.71104
111 1 0.0909162 0.236066 0.681026
70 1 0.133219 0.0476911 0.500286
34 1 0.169422 0.0673184 0.933263
86 1 0.109787 0.14175 0.805491
246 1 0.255558 0.0918652 0.81132
171 1 0.013403 0.185041 0.916955
230 1 -0.000674368 0.0130466 0.872568
191 1 0.153903 0.223259 0.961284
96 1 0.327384 0.213616 0.863983
360 2 0.318027 0.0245735 0.898102
8 1 0.314877 0.129432 0.993182
13 1 0.137495 0.451143 0.140775
276 1 0.286382 0.401333 0.133643
97 1 0.0953971 0.306222 0.122469
183 1 0.198018 0.376559 0.0078735
336 2 0.0563874 0.376562 0.226486
331 2 0.108436 0.491132 0.0138834
25 1 0.0076939 0.490545 0.244103
7 1 0.171807 0.32088 0.24306
108 1 0.197152 0.301226 0.417245
88 1 0.153176 0.451014 0.315187
103 1 0.240039 0.464405 0.440402
145 1 0.303308 0.380402 0.288649
81 1 0.0399727 0.344962 0.357895
292 2 0.317919 0.358731 0.411495
313 2 0.285833 0.262568 0.494215
335 2 0.106253 0.397552 0.474903
332 2 0.0390737 0.492201 0.38183
252 1 0.208803 0.360605 0.556393
27 1 0.0534989 0.383513 0.593156
105 1 0.156604 0.38306 0.728209
36 1 0.0584538 0.266271 0.508902
256 1 0.311397 0.396869 0.670496
295 2 0.0429141 0.501448 0.640135
208 1 0.246079 0.265766 0.740359
338 2 0.2717 0.27158 0.980622
235 1 0.283991 0.358777 0.873663
266 1 0.0863701 0.288367 0.837304
323 2 0.14888 0.392976 0.867771
347 2 0.271292 0.495525 0.910189
33 1 0.0354366 0.442734 0.828104
275 1 0.059698 0.386016 0.977551
210 1 0.256698 0.488476 0.781277
170 1 0.241339 0.688068 0.104882
95 1 0.0321853 0.651886 0.15852
101 1 0.220086 0.52595 0.020005
343 2 0.148283 0.598674 0.109178
94 1 -0.000877935 0.51515 0.0958807
54 1 0.291235 0.551657 0.160162
350 2 0.327955 0.736632 0.0110689
112 1 0.081123 0.620815 0.00562791
225 1 0.156355 0.582723 0.231551
233 1 0.311511 0.547676 0.307584
110 1 0.0682497 0.675681 0.466971
116 1 0.181402 0.611676 0.374967
278 1 0.038172 0.616539 0.329864
214 1 0.254042 0.716879 0.461875
319 2 0.114174 0.703295 0.251905
182 1 0.248933 0.693898 0.252462
40 1 0.118663 0.54059 0.731919
359 2 0.245091 0.576106 0.509234
14 1 0.173444 0.663105 0.613442
155 1 0.194281 0.503622 0.618957
204 1 0.00165599 0.612918 0.594292
300 2 0.271492 0.586185 0.700597
140 1 0.331973 0.648671 0.596176
104 1 0.0535347 0.687321 0.722501
351 2 0.175742 0.74866 0.716396
102 1 0.104629 0.522994 0.506253
142 1 0.255296 0.653704 0.938753
242 1 0.0880008 0.697852 0.877471
79 1 0.148439 0.52255 0.882328
254 1 0.201226 0.648632 0.793425
314 2 0.0422388 0.5921 0.843892
310 2 -0.00254868 0.754134 0.952927
64 1 0.137146 0.926259 0.0665512
248 1 0.246855 0.981437 0.2004
52 1 0.292168 0.837281 0.100586
205 1 0.162168 0.799329 0.171432
138 1 0.0660657 0.77222 0.0572938
211 1 0.0224997 0.883999 0.162258
74 1 0.303263 0.850933 0.267478
151 1 0.136849 0.889701 0.296069
32 1 -0.00711082 0.75681 0.265026
318 2 0.0886678 0.925156 0.421621
152 1 0.214969 0.885506 0.430522
175 1 0.329606 0.996772 0.422978
118 1 0.151771 0.757741 0.35958
47 1 0.0987233 0.897011 0.542987
45 1 0.229563 0.952408 0.614731
26 1 0.238067 0.808692 0.584639
50 1 0.0954297 0.833115 0.686062
297 2 0.213768 0.894259 0.718224
84 1 0.0120444 0.768269 0.563058
28 1 0.331183 0.829488 0.728693
291 2 0.135151 0.78356 0.490872
234 1 0.200371 0.795295 0.979324
261 1 0.121247 0.91836 0.911615
272 1 0.283954 0.945235 0.998981
172 1 0.209372 0.80897 0.821642
16 1 0.261851 0.938319 0.838098
1 1 0.126506 0.99465 0.762461
4 1 0.00663678 0.818217 0.848281
17 1 0.503574 0.102345 0.226899
63 1 0.3935 0.156835 0.132493
357 2 0.499476 0.0121822 0.147911
184 1 0.52627 0.0927783 0.0630708
10 1 0.381639 0.0071462 0.105091
3 1 0.631127 0.0586638 0.164915
186 1 0.580209 0.243464 0.0220806
288 1 0.544713 0.243638 0.183325
114 1 0.430655 0.0975546 0.382905
327 2 0.468308 0.0145289 0.488681
334 2 0.557914 0.0683565 0.345847
21 1 0.51779 0.21524 0.337196
241 1 0.372132 0.017191 0.259874
203 1 0.661473 0.212429 0.430712
317 2 0.421972 0.210663 0.256982
189 1 0.597076 0.00841001 0.44439
87 1 0.40866 0.210664 0.476454
281 1 0.643062 0.155626 0.292244
195 1 0.392924 0.082852 0.574851
12 1 0.649708 0.120821 0.692938
156 1 0.334336 0.220386 0.605926
286 1 0.492212 0.137416 0.683102
148 1 0.555657 0.00809679 0.593188
316 2 0.448884 0.0121307 0.694716
212 1 0.535925 0.135123 0.522875
71 1 0.406049 0.101137 0.802624
221 1 0.61462 0.114468 0.933475
294 2 0.501688 0.0714443 0.879527
165 1 0.563197 0.177394 0.803131
62 1 0.456972 0.173208 0.941946
53 1 0.552218 0.0253396 0.771637
255 1 0.432285 0.00402449 0.960039
135 1 0.416276 0.478899 0.229795
107 1 0.390565 0.315999 0.190581
55 1 0.411187 0.281855 0.031865
78 1 0.488395 0.397374 0.102709
202 1 0.6554 0.353924 0.152684
200 1 0.62547 0.404904 0.00838348
312 2 0.381389 0.479479 0.100314
121 1 0.553724 0.446042 0.404196
41 1 0.439607 0.351842 0.348512
311 2 0.514506 0.389718 0.264157
222 1 0.619784 0.316777 0.312018
167 1 0.522277 0.318229 0.483481
109 1 0.396718 0.466835 0.418722
258 1 0.629194 0.485019 0.264925
280 1 0.475165 0.356769 0.6529
166 1 0.375769 0.350918 0.523964
355 2 0.574984 0.421498 0.52656
99 1 0.563058 0.469327 0.69184
247 1 0.329652 0.498936 0.550921
180 1 0.473099 0.491935 0.566865
329 2 0.52594 0.256997 0.700597
19 1 0.600027 0.261562 0.604665
325 2 0.455188 0.254147 0.582068
194 1 0.414191 0.418065 0.788306
257 1 0.509692 0.3785 0.927412
326 2 0.621409 0.419174 0.873107
342 2 0.41036 0.311297 0.877539
193 1 0.555494 0.341751 0.787612
307 2 0.53699 0.248365 0.897586
119 1 0.360777 0.418263 0.994242
35 1 0.65811 0.293214 0.891328
181 1 0.40459 0.271565 0.745071
39 1 0.534797 0.658182 0.0284266
49 1 0.613972 0.527746 0.122901
44 1 0.644275 0.685913 0.149162
285 1 0.470777 0.593442 0.15476
162 1 0.359503 0.599204 0.0401402
134 1 0.385816 0.713843 0.185616
23 1 0.50181 0.591784 0.338311
127 1 0.660225 0.730221 0.351631
76 1 0.399095 0.620157 0.458939
346 2 0.509965 0.542075 0.471779
60 1 0.625403 0.600606 0.437265
67 1 0.36226 0.716239 0.340092
304 2 0.409291 0.606925 0.25989
337 2 0.607848 0.613664 0.268478
157 1 0.51345 0.738455 0.424598
120 1 0.52331 0.741495 0.263004
100 1 0.425559 0.552301 0.704236
83 1 0.650259 0.514823 0.558157
46 1 0.540649 0.666694 0.560229
287 1 0.559438 0.622653 0.720926
301 2 0.466867 0.712113 0.665601
260 1 0.349419 0.67699 0.747766
147 1 0.587413 0.672084 0.873671
289 2 0.463752 0.618574 0.808731
124 1 0.389846 0.548491 0.88238
196 1 0.432056 0.686575 0.922863
136 1 0.544313 0.511337 0.847145
264 1 0.488763 0.516331 0.999349
9 1 0.661773 0.570579 0.980704
115 1 0.423973 0.874714 0.17192
73 1 0.600648 0.800986 0.0124356
306 2 0.392704 0.897428 0.0476548
168 1 0.521839 0.923075 0.060279
270 1 0.441833 0.773578 0.0719553
296 2 0.553543 0.783449 0.145274
65 1 0.54209 0.947871 0.241816
133 1 0.607013 0.863849 0.392156
320 2 0.423732 0.846778 0.299318
277 1 0.474463 0.953793 0.361644
229 1 0.669531 0.987417 0.306958
173 1 0.363869 0.848262 0.429495
174 1 0.494265 0.874208 0.686696
51 1 0.416477 0.775422 0.567031
178 1 0.59805 0.765112 0.674543
282 1 0.386144 0.938636 0.576209
149 1 0.503295 0.885035 0.502852
269 1 0.646447 0.92445 0.687945
20 1 0.640985 0.772005 0.523316
201 1 0.590586 0.950796 0.916627
128 1 0.496451 0.746998 0.783222
190 1 0.422548 0.931287 0.810807
218 1 0.478157 0.831827 0.910652
131 1 0.62003 0.84313 0.808965
15 1 0.329263 0.800797 0.906324
163 1 0.714261 0.197761 0.135215
309 2 0.849552 0.218161 0.0435567
59 1 0.887295 0.177579 0.155632
146 1 0.932952 0.0125366 0.120223
199 1 0.779762 0.0584847 0.099724
43 1 0.979077 0.218323 0.0584042
324 2 0.671795 0.075915 0.0421614
72 1 0.794972 0.100903 0.24895
42 1 0.982342 0.200667 0.387374
209 1 0.748477 0.0803235 0.402602
226 1 0.825769 0.200186 0.386042
113 1 0.901059 0.0634184 0.393924
345 2 0.895027 0.192829 0.291332
159 1 0.964365 0.0899277 0.259923
321 2 0.874651 0.00621085 0.248269
92 1 0.802852 0.143245 0.66825
344 2 0.764737 0.0193072 0.605954
223 1 0.894237 0.0276015 0.625444
250 1 0.920589 0.23809 0.628223
56 1 0.686883 0.0976874 0.554083
24 1 0.999852 0.120157 0.53808
61 1 0.857575 0.140166 0.517921
197 1 0.981808 0.116905 0.709379
188 1 0.87093 0.0540846 0.804726
228 1 0.736091 0.159643 0.837841
126 1 0.890466 0.228611 0.791979
37 1 0.75948 0.0178108 0.943588
57 1 0.734544 0.165769 0.990387
129 1 0.866784 0.121119 0.947202
349 2 0.918676 0.00574311 0.972608
207 1 0.792221 0.260582 0.249126
158 1 0.748218 0.464688 0.071171
227 1 0.771563 0.425897 0.240452
213 1 0.820065 0.334103 0.11838
219 1 0.962177 0.369906 0.142895
322 2 0.714809 0.301243 0.0447292
215 1 0.897534 0.427052 0.00571925
237 1 0.99408 0.256634 0.24613
132 1 0.87029 0.497893 0.16274
48 1 0.670476 0.355929 0.468653
75 1 0.794614 0.354176 0.392874
80 1 0.906591 0.293838 0.481239
330 2 0.846457 0.477992 0.439274
177 1 0.969963 0.434505 0.473869
90 1 0.907584 0.38856 0.301742
93 1 0.735989 0.493224 0.384811
6 1 0.978833 0.339146 0.723974
339 2 0.921006 0.3627 0.589321
77 1 0.667635 0.38536 0.625646
150 1 0.829411 0.345563 0.685026
206 1 0.796218 0.407983 0.532202
238 1 0.759734 0.25848 0.55987
265 1 0.701944 0.260574 0.725294
176 1 0.916583 0.485244 0.603875
251 1 0.780792 0.499586 0.674075
259 1 0.706819 0.404183 0.772335
123 1 0.952737 0.333824 0.894773
106 1 0.750395 0.440133 0.907533
328 2 0.801431 0.32651 0.807858
169 1 0.804402 0.301791 0.950594
185 1 0.882642 0.425451 0.804325
340 2 0.675101 0.699232 0.00969375
154 1 0.931135 0.651151 0.0386108
144 1 0.788671 0.629069 0.0963404
143 1 0.729988 0.595443 0.23771
161 1 0.874697 0.662053 0.23775
125 1 0.944534 0.577791 0.442212
348 2 0.923369 0.673165 0.357565
249 1 0.898534 0.708812 0.491948
279 1 0.788151 0.666402 0.38023
130 1 0.864879 0.530708 0.311341
274 1 0.689229 0.645415 0.61274
290 2 0.775436 0.71433 0.518101
333 2 0.928803 0.671739 0.737758
82 1 0.847292 0.664845 0.638284
232 1 0.7841 0.581336 0.501229
267 1 0.970425 0.546391 0.73634
217 1 0.676387 0.562775 0.788942
58 1 0.831772 0.554036 0.944524
160 1 0.83102 0.594912 0.789788
243 1 0.931022 0.667717 0.88095
244 1 0.758995 0.693463 0.91499
137 1 0.715049 0.707632 0.755587
122 1 0.991479 0.525679 0.93984
299 2 0.742245 0.9857 0.208351
240 1 0.762327 0.794512 0.0641003
141 1 0.684955 0.951634 0.0489835
38 1 0.831743 0.912147 0.169327
268 1 0.760802 0.756849 0.225708
284 1 0.839414 0.924924 0.0244705
271 1 0.678395 0.862662 0.173869
66 1 0.906153 0.774098 0.132844
298 2 0.88791 0.885658 0.431754
303 2 0.700563 0.942684 0.424722
253 1 0.767875 0.835487 0.445751
85 1 0.816827 0.987369 0.494849
283 1 0.853724 0.790297 0.341386
302 2 0.712185 0.866149 0.302532
236 1 0.809804 0.931402 0.329819
164 1 0.973584 0.941236 0.32131
245 1 0.972844 0.978187 0.491976
239 1 0.995792 0.815314 0.420665
315 2 0.921101 0.855079 0.255803
153 1 0.893483 0.872151 0.564794
68 1 0.933226 0.794074 0.704538
187 1 0.765917 0.797129 0.625544
220 1 0.802233 0.930263 0.689578
2 1 0.692731 0.919221 0.546585
192 1 0.966613 0.950594 0.743759
353 2 0.995743 0.892879 0.63515
231 1 0.740931 0.85188 0.914466
31 1 0.834944 0.772069 0.817561
354 2 0.735912 0.847467 0.756728
29 1 0.881997 0.917699 0.879511
91 1 0.881666 0.781792 0.969384
198 1 0.706384 1.00687 0.805793
224 1 0.990448 0.895503 0.994904
ITEM: TIMESTEP
120000
ITEM: NUMBER OF ATOMS
360
ITEM: BOX BOUNDS pp pp pp
0.0000000000000000e+00 6.6943295008216896e+00
0.0000000000000000e+00 6.6943295008216896e+00
0.0000000000000000e+00 6.6943295008216896e+00
ITEM: ATOMS id type xs ys zs
311 2 0.244361 0.230587 0.15159
63 1 0.254731 0.14544 0.0593614
272 1 0.201871 0.00410421 0.104199
179 1 0.215645 0.12476 0.237766
211 1 0.0523815 0.0301825 0.0337056
98 1 0.0833824 0.0512787 0.218806
358 2 0.125612 0.103219 0.119493
89 1 0.1255 0.228145 0.133922
237 1 0.103157 0.220284 0.31344
195 1 0.312969 0.0879356 0.364438
341 2 0.0815264 0.154135 0.439997
108 1 0.213676 0.198823 0.407161
332 2 0.323514 0.203638 0.310752
7 1 0.159258 0.0487794 0.370618
70 1 0.0458931 0.00328333 0.46349
336 2 0.0114607 0.148947 0.248274
352 2 0.217306 0.134305 0.668778
11 1 0.271924 0.152987 0.545196
266 1 0.107176 0.173446 0.60508
246 1 0.176263 0.0398435 0.558609
252 1 0.127651 0.0440832 0.71802
122 1 0.0425675 0.180804 0.737684
21 1 0.212485 0.0305358 0.935306
97 1 0.130452 0.186716 0.977018
197 1 0.157963 0.232759 0.836779
139 1 0.242534 0.0987226 0.801121
338 2 0.237547 0.168675 0.911994
50 1 0.0789475 0.0936654 0.868366
96 1 0.317848 0.239214 0.834993
183 1 0.109787 0.34752 0.0295652
54 1 0.10974 0.373829 0.20355
18 1 0.246653 0.361886 0.133691
79 1 0.0836835 0.483559 0.102402
347 2 0.133808 0.497411 0.248248
78 1 0.337375 0.38931 0.25791
171 1 0.00486945 0.273156 0.219775
309 2 0.0154619 0.258274 0.026419
299 2 0.17028 0.319876 0.38633
263 1 0.226529 0.283366 0.265984
177 1 0.190741 0.438828 0.341536
90 1 0.0358657 0.3692 0.341579
67 1 0.309046 0.320252 0.396407
36 1 0.0798027 0.283419 0.47592
109 1 0.291575 0.441167 0.472336
102 1 0.13557 0.454463 0.492295
27 1 0.219227 0.312583 0.521808
176 1 0.100787 0.361468 0.606768
350 2 0.149448 0.412676 0.716229
256 1 0.251949 0.424371 0.630218
101 1 0.0605766 0.326169 0.752358
208 1 0.220995 0.264524 0.674144
33 1 0.24136 0.365445 0.840391
275 1 0.0914174 0.398312 0.881798
142 1 0.0458217 0.481092 0.763292
215 1 0.00420018 0.270337 0.885619
191 1 0.251967 0.276327 0.977826
119 1 0.23451 0.424116 0.989925
25 1 0.286531 0.670703 0.158707
233 1 0.229581 0.510806 0.142122
132 1 0.148264 0.643417 0.12299
182 1 0.0283015 0.581522 0.202009
240 1 0.011731 0.626216 0.0526144
196 1 0.26171 0.591792 0.0170875
13 1 0.0686527 0.557773 0.352521
32 1 0.0673951 0.715023 0.382604
81 1 0.2095 0.573217 0.416207
23 1 0.215932 0.730377 0.412282
112 1 0.160012 0.651087 0.271585
292 2 0.260368 0.577605 0.266731
241 1 0.32022 0.672373 0.322445
100 1 0.26486 0.613918 0.706873
110 1 0.103093 0.630068 0.523468
295 2 0.0314821 0.658736 0.639964
204 1 0.245267 0.63888 0.551194
247 1 0.125085 0.51841 0.645942
316 2 0.263149 0.743074 0.655102
40 1 0.146992 0.711174 0.6466
254 1 0.235398 0.649959 0.882015
155 1 0.125532 0.641465 0.779081
64 1 0.133647 0.54797 0.953308
261 1 0.0435942 0.690827 0.899296
210 1 0.193691 0.505614 0.822184
353 2 0.136053 0.664736 0.994818
170 1 0.0916687 0.799905 0.244566
138 1 0.0489374 0.917315 0.152708
230 1 0.142523 0.910784 0.0108266
360 2 0.157096 0.839498 0.136806
234 1 0.251067 0.794654 0.0686201
95 1 0.0848688 0.756787 0.0656917
205 1 0.255809 0.798385 0.253424
74 1 0.177644 0.942566 0.24022
184 1 0.32448 0.909114 0.145218
34 1 0.307778 0.918083 -0.00660497
216 1 0.0350493 0.942114 0.319212
283 1 0.166018 0.879523 0.367828
117 1 0.26063 0.962051 0.45093
357 2 0.287978 0.841074 0.392064
118 1 0.305817 0.944084 0.299395
243 1 0.0630185 0.934882 0.596273
151 1 0.0933028 0.791412 0.523094
214 1 0.176963 0.875209 0.678739
152 1 0.274847 0.811345 0.518031
293 2 0.179991 0.895594 0.539138
26 1 0.286191 0.993765 0.656824
242 1 0.307483 0.964025 0.81725
315 2 0.0777302 0.966824 0.897545
268 1 0.0178003 0.846742 0.928789
224 1 0.170416 0.787458 0.926585
86 1 0.159764 0.894425 0.833795
15 1 0.227172 0.764756 0.766799
172 1 0.0427801 0.780747 0.769038
284 1 0.0347062 0.937989 0.767127
334 2 0.610053 0.119142 0.0243548
288 1 0.551257 0.251061 0.0196461
218 1 0.413948 0.164487 0.079688
57 1 0.523354 0.0970535 0.145698
107 1 0.362079 0.241045 0.200305
307 2 0.368479 0.0349419 0.0390957
30 1 0.344892 0.0580306 0.181625
199 1 0.655673 0.184525 0.140589
189 1 0.607689 0.0773252 0.272612
87 1 0.474316 0.0339338 0.377947
5 1 0.409068 0.19157 0.452089
326 2 0.508844 0.164718 0.374078
166 1 0.444688 0.139358 0.273412
69 1 0.583645 0.230001 0.295922
178 1 0.627543 0.00317755 0.40527
281 1 0.654578 0.163695 0.430558
282 1 0.388399 0.0469166 0.49787
156 1 0.475983 0.204295 0.667209
313 2 0.41048 0.142838 0.574674
111 1 0.338282 0.141052 0.692161
56 1 0.536106 0.119105 0.533735
220 1 0.475043 0.0559532 0.66924
317 2 0.513231 -0.00325457 0.495289
269 1 0.662733 0.064856 0.722033
250 1 0.614614 0.218925 0.751688
61 1 0.658594 0.169019 0.602236
198 1 0.545721 0.0171582 0.813813
53 1 0.484977 0.101151 0.956291
265 1 0.647332 0.127655 0.887902
71 1 0.461215 0.163482 0.812619
305 2 0.39192 0.0564024 0.775961
8 1 0.343639 0.100495 0.917433
163 1 0.386106 0.323916 0.0829257
135 1 0.469407 0.411229 0.185942
212 1 0.650226 0.355804 0.136419
258 1 0.556581 0.485221 0.0772313
134 1 0.37972 0.471207 0.0705083
343 2 0.527629 0.359921 0.0884396
277 1 0.515916 0.26364 0.17679
186 1 0.62484 0.390635 0.281017
120 1 0.489182 0.451667 0.325857
41 1 0.441079 0.282384 0.331168
148 1 0.552601 0.261336 0.443201
348 2 0.540008 0.34925 0.36851
286 1 0.605162 0.407175 0.472773
167 1 0.445327 0.384105 0.469172
180 1 0.497885 0.402248 0.731564
301 2 0.477425 0.258778 0.547468
181 1 0.56117 0.33511 0.616635
280 1 0.501853 0.484203 0.58175
145 1 0.360006 0.318211 0.717254
22 1 0.356016 0.271216 0.574011
359 2 0.423969 0.395104 0.622761
194 1 0.34901 0.475008 0.75022
329 2 0.644109 0.297976 0.530487
35 1 0.476492 0.394198 0.988787
124 1 0.395913 0.367583 0.853759
342 2 0.520952 0.403338 0.85885
312 2 0.34484 0.376428 0.970984
165 1 0.562649 0.275883 0.877092
12 1 0.651086 0.393678 0.807364
37 1 0.639556 0.364383 0.977842