ITEM: TIMESTEP
0
ITEM: NUMBER OF ATOMS
360
ITEM: BOX BOUNDS pp pp pp
0.0000000000000000e+00 6.6943295008216896e+00
0.0000000000000000e+00 6.6943295008216896e+00
0.0000000000000000e+00 6.6943295008216896e+00
ITEM: ATOMS id type xs ys zs
137 1 0.135112 0.185244 0.205091
222 1 0.244983 0.0680418 0.140256
42 1 0.119258 0.0901529 0.0170528
267 1 0.312544 0.200311 0.161332
340 2 0.218026 0.173873 0.0774079
338 2 0.0270699 0.121317 0.114956
271 1 0.0890613 0.0323138 0.189848
94 1 0.290117 0.0189407 0.000695873
154 1 0.130828 0.0091362 0.434312
181 1 0.323759 0.119054 0.396444
237 1 0.0544726 0.238025 0.363227
96 1 0.262275 0.229314 0.302499
260 1 0.197761 0.0796198 0.308096
45 1 0.187333 0.169848 0.445235
155 1 0.0570045 0.0743897 0.331371
232 1 0.272364 0.0063508 0.476755
280 1 0.223355 0.0523204 0.619812
95 1 0.216539 0.183106 0.710074
47 1 0.303808 0.166832 0.554381
114 1 0.105244 0.216473 0.601123
44 1 0.0598292 0.203867 0.737772
131 1 0.0831817 0.0760165 0.641215
63 1 0.0545605 0.11542 0.50538
120 1 0.149979 0.162814 0.847536
316 2 0.0186158 0.107047 0.958149
31 1 0.0451939 0.0486694 0.805545
10 1 0.244946 0.0441236 0.783704
310 2 0.217006 0.0982364 0.92263
81 1 0.304447 0.186361 0.821773
28 1 0.00880709 0.237434 0.907653
231 1 0.141331 0.232043 0.985131
160 1 0.301856 0.20121 0.972706
321 2 0.179835 0.419775 0.116627
33 1 0.0421502 0.392173 0.105217
115 1 0.00335879 0.275783 0.210108
176 1 0.323742 0.328069 0.0690303
202 1 0.198502 0.297105 0.13934
178 1 0.274076 0.417442 0.20782
258 1 0.270589 0.459375 0.00353582
109 1 0.149935 0.368158 0.0075267
326 2 0.29202 0.455367 0.442402
355 2 0.285623 0.332944 0.350345
36 1 0.175149 0.317362 0.386598
243 1 0.041797 0.399565 0.393325
118 1 0.117535 0.36073 0.267101
8 1 0.207098 0.453488 0.341464
103 1 0.143608 0.458357 0.494412
294 2 0.212773 0.266883 0.629049
104 1 0.197307 0.43252 0.633842
215 1 0.0858632 0.33329 0.511367
108 1 0.235865 0.307901 0.519046
313 2 0.118238 0.334684 0.722172
286 1 0.320566 0.483504 0.558638
180 1 0.274047 0.334831 0.926729
15 1 0.0387885 0.440603 0.90673
58 1 0.128613 0.328614 0.855449
314 2 0.031085 0.340418 0.979285
85 1 0.235039 0.352577 0.771437
194 1 0.108365 0.443768 0.771425
270 1 0.314266 0.482447 0.861371
349 2 0.0871299 0.620413 0.0726223
309 2 0.252912 0.521487 0.115485
196 1 0.140515 0.520399 0.198282
126 1 0.222115 0.630321 0.0499079
225 1 0.121978 0.695553 0.191121
79 1 0.249561 0.615819 0.199643
277 1 0.116518 0.514058 0.0231995
125 1 0.0608054 0.744655 0.0570524
305 2 0.316818 0.743168 0.0326471
167 1 0.00779451 0.530154 0.135168
52 1 0.109808 0.701668 0.458436
69 1 0.159229 0.640343 0.322515
46 1 0.275467 0.594165 0.400816
308 2 0.0773009 0.507569 0.316466
139 1 0.00802411 0.602905 0.265737
82 1 0.0405129 0.561709 0.42618
300 2 0.1569 0.571291 0.427179
289 2 0.311527 0.677695 0.294546
164 1 0.198211 0.610774 0.540509
90 1 0.06802 0.566495 0.611418
171 1 0.14343 0.686686 0.684493
288 1 0.214115 0.570601 0.734906
186 1 0.29665 0.703362 0.689938
327 2 0.0687178 0.573684 0.756282
161 1 0.224855 0.723122 0.819455
285 1 0.103805 0.655523 0.889055
1 1 0.163076 0.527147 0.890438
25 1 0.323279 0.666342 0.919865
248 1 0.228414 0.777787 0.247512
59 1 0.193813 0.916268 0.16839
72 1 0.0659762 0.841987 0.179092
172 1 0.201165 0.790641 0.0812041
188 1 0.0954998 0.93412 0.0518857
301 2 0.228546 0.905778 0.0553932
315 2 0.325115 0.976686 0.121181
30 1 0.0979092 0.939204 0.302167
21 1 0.230705 0.896224 0.339305
168 1 0.146411 0.850883 0.478161
295 2 0.142193 0.812176 0.357105
147 1 0.323277 0.837105 0.478199
204 1 0.00521028 0.823607 0.435447
86 1 0.0351748 0.765612 0.306417
216 1 0.237763 0.750221 0.397783
112 1 0.0376829 0.934163 0.556224
354 2 0.191209 0.807389 0.684217
105 1 0.0713662 0.806294 0.624929
2 1 0.20603 0.901991 0.600786
3 1 0.325397 0.93922 0.705585
357 2 0.113075 0.943709 0.664896
156 1 0.22919 0.754108 0.567057
55 1 0.178461 0.902956 0.747937
287 1 0.26283 0.84621 0.936624
98 1 0.123052 0.803971 0.94183
5 1 0.1699 0.985914 0.902385
150 1 0.0859888 0.765433 0.781957
264 1 0.0667808 0.905205 0.845778
360 2 0.281192 0.86426 0.802928
208 1 0.411789 0.0669457 0.102713
253 1 0.464732 0.191207 0.195213
328 2 0.575272 0.125908 0.158075
187 1 0.574321 0.0575597 0.0316771
29 1 0.655597 0.173435 0.0769376
249 1 0.504692 0.198938 0.0244975
67 1 0.509576 0.032061 0.211212
344 2 0.379551 0.217653 0.0615755
13 1 0.333594 0.0130343 0.244119
11 1 0.475434 0.172205 0.464478
119 1 0.454993 0.0725061 0.336526
347 2 0.494054 0.191769 0.343771
142 1 0.616618 0.200244 0.409199
129 1 0.588094 0.0480673 0.358753
259 1 0.495116 0.011753 0.471264
290 2 0.36475 0.236996 0.46868
177 1 0.606472 0.175579 0.260738
335 2 0.353303 0.136397 0.271642
60 1 0.573328 0.0848479 0.71668
359 2 0.589188 0.218445 0.73615
197 1 0.632014 0.224063 0.609071
56 1 0.600544 0.0947851 0.539192
87 1 0.472468 0.110762 0.603864
128 1 0.355009 0.119067 0.68187
27 1 0.445465 0.0305711 0.743872
319 2 0.381611 0.0846328 0.51471
323 2 0.634479 0.0454253 0.849285
12 1 0.545025 0.147457 0.86717
284 1 0.417627 0.0967814 0.94039
302 2 0.615269 0.204092 0.954279
51 1 0.459583 0.183145 0.754249
346 2 0.346933 0.063717 0.845998
220 1 0.403029 0.457998 0.115193
144 1 0.418113 0.335256 0.210231
358 2 0.615513 0.306533 0.233403
257 1 0.555651 0.434887 0.142792
34 1 0.445859 0.360185 0.00252531
157 1 0.565957 0.301462 0.119805
113 1 0.594809 0.40554 0.00126512
53 1 0.406114 0.417628 0.34174
68 1 0.373935 0.358128 0.468489
263 1 0.593401 0.441577 0.283816
116 1 0.531732 0.411982 0.42148
183 1 0.525851 0.305175 0.311724
75 1 0.395402 0.260002 0.351618
312 2 0.536711 0.303729 0.470527
193 1 0.659945 0.440243 0.421484
317 2 0.486842 0.478638 0.252881
276 1 0.465659 0.447687 0.572106
166 1 0.334313 0.271955 0.684611
133 1 0.362646 0.416279 0.70627
266 1 0.594799 0.36031 0.594711
110 1 0.524552 0.311008 0.732469
26 1 0.439564 0.296724 0.585558
299 2 0.501298 0.422565 0.749503
148 1 0.604667 0.304429 0.859479
189 1 0.494943 0.400461 0.875542
303 2 0.400174 0.379244 0.812437
130 1 0.615902 0.454601 0.794241
18 1 0.415048 0.270029 0.867427
121 1 0.571081 0.573861 0.017815
17 1 0.509 0.582105 0.173872
339 2 0.632191 0.545344 0.249458
23 1 0.372031 0.60586 0.0736062
179 1 0.348797 0.731003 0.15613
348 2 0.608403 0.656713 0.110421
158 1 0.598772 0.673233 0.310169
229 1 0.554639 0.545541 0.383108
283 1 0.363192 0.532323 0.270213
70 1 0.426889 0.679076 0.357472
221 1 0.603224 0.649159 0.473208
173 1 0.412351 0.528546 0.431664
274 1 0.345513 0.688211 0.486363
143 1 0.666389 0.577183 0.711247
201 1 0.484095 0.672841 0.70099
134 1 0.475548 0.626167 0.523996
78 1 0.3735 0.575785 0.669344
74 1 0.533381 0.527385 0.678692
227 1 0.63597 0.683473 0.62223
14 1 0.664711 0.523251 0.566045
152 1 0.469175 0.673057 0.957277
4 1 0.571978 0.622811 0.82879
91 1 0.441388 0.5341 0.796461
331 2 0.469372 0.673908 0.834684
322 2 0.665759 0.699125 0.773171
65 1 0.594402 0.71587 0.991929
38 1 0.422363 0.524709 0.96164
342 2 0.339319 0.592702 0.783829
332 2 0.550794 0.501489 0.917007
219 1 0.586112 0.862729 0.0465721
107 1 0.481934 0.894569 0.169772
99 1 0.464319 0.953748 0.014856
320 2 0.591401 0.971421 0.113036
89 1 0.628279 0.773465 0.158514
132 1 0.490222 0.754476 0.227045
84 1 0.652569 0.930664 0.219872
224 1 0.336047 0.862811 0.205648
61 1 0.354763 0.868816 0.0521274
9 1 0.478418 0.756057 0.0879852
279 1 0.377572 0.941039 0.392876
297 2 0.588766 0.842193 0.259735
77 1 0.379669 0.807837 0.331709
146 1 0.464882 0.878836 0.495436
255 1 0.498805 0.897187 0.321638
93 1 0.531714 0.785507 0.403892
252 1 0.64381 0.905203 0.373528
304 2 0.613928 0.990084 0.486373
333 2 0.428358 0.767279 0.475654
246 1 0.381794 0.984924 0.577215
282 1 0.49077 0.925159 0.63386
228 1 0.377789 0.802738 0.618383
269 1 0.596625 0.792225 0.72707
117 1 0.532988 0.782358 0.587382
341 2 0.599002 0.865938 0.511218
275 1 0.647996 0.89848 0.635966
136 1 0.611455 0.941459 0.796214
185 1 0.510215 0.994078 0.874153
334 2 0.572586 0.884101 0.915939
138 1 0.428461 0.812932 0.935662
273 1 0.472027 0.886008 0.78998
6 1 0.36145 0.956537 0.882045
40 1 0.37478 0.753496 0.809415
223 1 0.545711 0.77362 0.862995
64 1 0.805375 0.188588 0.0693073
230 1 0.937113 0.143295 0.190714
192 1 0.733071 0.217324 0.203401
324 2 0.832074 0.0309073 0.167661
141 1 0.702934 0.0689532 0.17802
238 1 0.908421 0.0836839 0.0508967
32 1 0.998326 0.227378 0.0509697
325 2 0.739302 0.197133 0.357267
145 1 0.854188 0.0475913 0.4398
97 1 0.795235 0.0982183 0.294694
16 1 0.712255 0.0802525 0.437016
159 1 0.932191 0.179854 0.355097
350 2 0.936034 0.135866 0.478864
278 1 0.913252 0.0204896 0.287224
293 2 0.846399 0.217821 0.268315
209 1 0.801076 0.185961 0.7098
165 1 0.917157 0.0462238 0.727465
106 1 0.727302 0.0864858 0.635729
214 1 0.959652 0.184391 0.621483
66 1 0.904879 0.046305 0.581365
35 1 0.818375 0.169673 0.53472
19 1 0.849343 0.15483 0.929499
184 1 0.712228 0.0841009 0.946208
41 1 0.838396 0.0174864 0.900571
20 1 0.746629 0.0180824 0.790805
337 2 0.827425 0.103318 0.803283
163 1 0.675071 0.1669 0.806911
175 1 0.928984 0.179639 0.793188
43 1 0.687668 0.388882 0.185799
296 2 0.710716 0.293413 0.0791804
48 1 0.933508 0.46133 0.0190199
54 1 0.766034 0.414955 0.0498901
356 2 0.916854 0.417225 0.151394
190 1 0.863333 0.314658 0.135304
92 1 0.682535 0.305104 0.326725
153 1 0.701358 0.302644 0.496516
71 1 0.94515 0.304363 0.49011
343 2 0.956341 0.306736 0.340894
262 1 0.898462 0.487779 0.366084
330 2 0.781714 0.444339 0.398257
256 1 0.819699 0.278192 0.409561
169 1 0.825475 0.360024 0.285449
200 1 0.73946 0.481431 0.29029
199 1 0.985087 0.412552 0.254538
124 1 0.783479 0.300946 0.608736
206 1 0.98486 0.457439 0.543377
242 1 0.789494 0.463729 0.624348
268 1 0.975227 0.49763 0.713407
233 1 0.681059 0.322145 0.717603
83 1 0.863996 0.373215 0.708978
149 1 0.987355 0.330659 0.6469
76 1 0.826901 0.387695 0.502551
336 2 0.670609 0.429996 0.667399
80 1 0.887459 0.328808 0.982287
24 1 0.992868 0.329101 0.801153
127 1 0.809509 0.281378 0.806874
205 1 0.884751 0.433123 0.854046
244 1 0.732978 0.410908 0.898834
57 1 0.739408 0.25512 0.951238
123 1 0.828158 0.555649 0.0638199
272 1 0.722208 0.67642 0.0512449
195 1 0.706617 0.651574 0.211456
291 2 0.827028 0.646844 0.184635
211 1 0.943938 0.675363 0.135933
39 1 0.684257 0.52585 0.125531
218 1 0.876801 0.509618 0.219455
101 1 0.967367 0.61429 0.00120819
226 1 0.945428 0.68512 0.407531
254 1 0.844671 0.621644 0.318472
37 1 0.716324 0.609337 0.384438
207 1 0.803169 0.529492 0.475936
306 2 0.903867 0.587138 0.458434
245 1 0.994516 0.686261 0.552715
261 1 0.783762 0.613128 0.646507
88 1 0.962956 0.672976 0.715277
234 1 0.909853 0.574048 0.58376
50 1 0.824588 0.676194 0.510219
191 1 0.839367 0.581863 0.913335
235 1 0.809818 0.676051 0.781729
353 2 0.923336 0.6751 0.87509
265 1 0.860518 0.721684 0.98473
239 1 0.705511 0.671388 0.887571
73 1 0.698201 0.535221 0.979004
62 1 0.984576 0.564057 0.862714
329 2 0.896628 0.558148 0.780747
213 1 0.774721 0.509407 0.772304
318 2 0.731193 0.844111 0.158764
292 2 0.942139 0.829445 0.172237
352 2 0.881812 0.96001 0.0452985
111 1 0.952329 0.858832 0.0520674
198 1 0.750859 0.977973 0.0667199
250 1 0.816191 0.905529 0.201749
217 1 0.958881 0.987357 0.142004
281 1 0.722109 0.832286 0.0164764
247 1 0.832724 0.778566 0.109364
135 1 0.957274 0.890226 0.285129
151 1 0.981962 0.966543 0.421157
240 1 0.778944 0.951677 0.35514
100 1 0.850839 0.804828 0.400209
351 2 0.821148 0.907825 0.462995
203 1 0.726393 0.794365 0.278655
212 1 0.681228 0.770735 0.438346
236 1 0.880189 0.757514 0.258901
49 1 0.737107 0.791709 0.706494
241 1 0.976197 0.90753 0.693334
210 1 0.735798 0.971213 0.538565
170 1 0.868153 0.779959 0.644935
311 2 0.974646 0.785209 0.702411
162 1 0.816428 0.921053 0.667972
7 1 0.746784 0.823824 0.561722
182 1 0.906409 0.88939 0.557965
251 1 0.988856 0.968542 0.951654
174 1 0.890004 0.816247 0.79104
22 1 0.853395 0.872825 0.935892
122 1 0.688462 0.819254 0.868683
345 2 0.743828 0.893524 0.774537
102 1 0.672991 0.94965 0.930854
140 1 0.984711 0.775838 0.900571
298 2 0.903663 0.932436 0.832475
307 2 0.797616 0.760469 0.888404
ITEM: TIMESTEP
10000
ITEM: NUMBER OF ATOMS
360
ITEM: BOX BOUNDS pp pp pp
0.0000000000000000e+00 6.6943295008216896e+00
0.0000000000000000e+00 6.6943295008216896e+00
0.0000000000000000e+00 6.6943295008216896e+00
ITEM: ATOMS id type xs ys zs
42 1 0.0931352 0.0774549 0.0654963
335 2 0.214053 0.059227 0.18049
267 1 0.227719 0.178531 0.140786
231 1 0.0844912 0.194182 0.192151
314 2 0.046323 0.188381 0.0726793
160 1 0.332423 0.130242 0.001603
260 1 0.218619 0.0738026 0.301939
45 1 0.207924 0.0104094 0.43905
96 1 0.21923 0.181397 0.431144
340 2 0.105493 0.108964 0.278244
97 1 0.0699462 0.0916862 0.395479
237 1 0.0901655 0.243331 0.415789
313 2 0.0710353 0.0927616 0.653414
75 1 0.267535 0.105295 0.556397
47 1 0.0893705 0.242449 0.654933
280 1 0.182916 0.104305 0.68101
145 1 0.0916189 0.151194 0.540703
232 1 0.111926 0.00799479 0.577578
110 1 0.2474 0.239672 0.657949
338 2 0.0192054 0.044272 0.962904
28 1 0.0974912 0.140618 0.933454
114 1 0.151377 0.203742 0.790847
310 2 0.213629 0.0885463 0.99356
128 1 0.232761 0.0949094 0.86818
81 1 0.227807 0.21707 0.982407
5 1 0.107333 0.050873 0.798787
31 1 0.00442275 0.174281 0.767134
294 2 0.273277 0.135253 0.765809
346 2 0.289559 0.311859 0.0579693
33 1 0.134672 0.297932 0.0845913
109 1 0.21171 0.449515 0.0986871
293 2 0.0160001 0.293612 0.231182
137 1 0.130661 0.376869 0.233317
139 1 0.0749183 0.4526 0.0163725
202 1 0.252487 0.32315 0.173812
321 2 0.250056 0.437734 0.226259
199 1 0.00224285 0.40422 0.143263
286 1 0.0814574 0.393424 0.457786
103 1 0.214524 0.394722 0.364449
308 2 0.0972099 0.470208 0.322058
355 2 0.319218 0.278657 0.398241
243 1 0.00571069 0.376777 0.321788
8 1 0.243406 0.457373 0.493401
155 1 0.19937 0.267052 0.29906
215 1 0.239216 0.305278 0.50586
104 1 0.00824293 0.285027 0.539426
68 1 0.276521 0.407965 0.623345
108 1 0.137341 0.386984 0.622108
206 1 0.000878641 0.42841 0.575558
303 2 0.321647 0.339737 0.732033
288 1 0.212816 0.364721 0.781642
356 2 0.0402614 0.385969 0.924729
58 1 0.129323 0.292807 0.898961
85 1 0.229141 0.376053 0.96165
80 1 0.00139925 0.278889 0.975242
1 1 0.119794 0.470026 0.872069
194 1 0.0647713 0.366421 0.775691
95 1 0.28952 0.253012 0.847977
301 2 0.143949 0.731595 0.0739299
225 1 0.0776154 0.652141 0.177951
172 1 0.237823 0.677788 0.141868
126 1 0.313755 0.555815 0.197304
277 1 0.278408 0.576184 0.0378713
101 1 0.100337 0.613306 0.0434209
349 2 0.0933974 0.52108 0.128613
118 1 0.160339 0.534023 0.236011
52 1 0.230574 0.646792 0.29115
156 1 0.131215 0.712746 0.437098
79 1 0.312439 0.538641 0.373451
69 1 0.150271 0.55421 0.394782
226 1 0.0518666 0.665464 0.325441
295 2 0.139391 0.743387 0.272322
164 1 0.325241 0.667624 0.466625
40 1 0.289023 0.653805 0.69053
171 1 0.0673757 0.680806 0.594345
270 1 0.203353 0.525542 0.684361
78 1 0.3231 0.566358 0.574408
90 1 0.0432747 0.54753 0.689277
245 1 0.149257 0.553833 0.550866
186 1 0.213796 0.689926 0.557835
61 1 0.315591 0.659731 0.848777
342 2 0.191801 0.638522 0.767821
329 2 0.0492011 0.585171 0.836366
258 1 0.261835 0.5028 0.888738
25 1 0.15384 0.628615 0.889844
62 1 0.0831039 0.701096 0.762798
125 1 0.240908 0.722198 0.993126
140 1 0.0404264 0.743768 0.999962
248 1 0.196036 0.836495 0.15615
271 1 0.0840768 0.970533 0.176897
72 1 0.0310987 0.812644 0.156825
224 1 0.310017 0.79817 0.244739
188 1 0.0952992 0.882976 0.0407758
59 1 0.287771 0.953377 0.207817
222 1 0.242644 0.982576 0.0612957
94 1 0.312258 0.832388 0.0819519
168 1 0.244392 0.77878 0.386835
290 2 0.316195 0.970377 0.480553
151 1 0.0697744 0.947703 0.446781
86 1 0.0459721 0.813724 0.309967
154 1 0.167564 0.924868 0.314225
279 1 0.310384 0.925988 0.353699
30 1 0.00773545 0.987998 0.314685
236 1 0.00427879 0.813784 0.491638
204 1 0.00803332 0.895169 0.609329
357 2 0.152786 0.970029 0.690331
147 1 0.277473 0.809514 0.634353
2 1 0.128356 0.81614 0.668216
360 2 0.306822 0.891336 0.724678
354 2 0.110395 0.781364 0.537275
3 1 0.260424 0.960943 0.611666
327 2 0.00521677 0.778931 0.660782
246 1 0.199023 0.864388 0.511396
161 1 0.241375 0.784356 0.787363
98 1 0.117786 0.80906 0.887441
10 1 0.259448 0.860471 0.939306
55 1 0.212647 0.927952 0.798393
251 1 -0.00245023 0.918629 0.915199
105 1 0.0491772 0.8782 0.766344
120 1 0.144891 0.979573 0.927989
176 1 0.364246 0.232687 0.109451
253 1 0.469623 0.185529 0.203759
328 2 0.585524 0.149468 0.188397
187 1 0.479773 0.118127 0.0677127
129 1 0.54228 0.0193505 0.182083
13 1 0.349696 0.0856452 0.150076
183 1 0.434174 0.0603734 0.29772
178 1 0.327775 0.207155 0.286223
142 1 0.533998 0.188179 0.433453
67 1 0.505758 0.0397274 0.420093
326 2 0.420011 0.17234 0.380921
181 1 0.344927 0.0732762 0.405768
259 1 0.643646 0.00624272 0.346794
56 1 0.644896 0.0844963 0.494057
119 1 0.382278 0.207841 0.487289
319 2 0.460318 0.107212 0.512201
11 1 0.512946 0.194184 0.587623
51 1 0.384655 0.211907 0.739069
87 1 0.55331 0.0360228 0.604992
26 1 0.400338 0.0852385 0.634779
60 1 0.529801 0.144747 0.738531
197 1 0.658194 0.235665 0.536615
106 1 0.668604 0.124378 0.679039
323 2 0.439376 0.0614669 0.96315
12 1 0.525814 0.190321 0.94809
284 1 0.399837 0.121395 0.860885
136 1 0.577803 0.0690754 0.878495
27 1 0.34244 0.0165166 0.757272
302 2 0.618647 0.113778 0.997017
220 1 0.514373 0.453605 0.0853064
192 1 0.652777 0.3506 0.148831
196 1 0.375683 0.421083 0.141917
43 1 0.520288 0.271633 0.0876452
344 2 0.385881 0.301043 0.224483
347 2 0.621146 0.421093 0.0311041
157 1 0.512067 0.364687 0.204081
36 1 0.368375 0.376934 0.458436
144 1 0.453299 0.294245 0.353232
263 1 0.619549 0.472245 0.352671
317 2 0.520679 0.39915 0.393643
92 1 0.633093 0.31431 0.400012
358 2 0.626973 0.394592 0.259314
53 1 0.347763 0.389722 0.298317
14 1 0.561989 0.469824 0.499878
249 1 0.588722 0.258878 0.258925
116 1 0.389652 0.304296 0.613893
153 1 0.636614 0.271858 0.733924
133 1 0.440835 0.447407 0.587345
299 2 0.492221 0.283665 0.687015
38 1 0.352921 0.483515 0.726776
266 1 0.611843 0.392238 0.621756
173 1 0.508602 0.332141 0.511605
276 1 0.496617 0.408378 0.716992
148 1 0.491608 0.285432 0.82589
189 1 0.523826 0.379672 0.943645
166 1 0.365557 0.380057 0.847387
180 1 0.355301 0.455454 0.990581
18 1 0.397602 0.281769 0.968273
233 1 0.625835 0.384454 0.821479
34 1 0.46337 0.490349 0.850829
244 1 0.644444 0.312435 0.989429
348 2 0.510977 0.623166 0.0648324
89 1 0.627122 0.62341 0.125459
257 1 0.463367 0.633242 0.177266
289 2 0.365725 0.70843 0.178541
200 1 0.606471 0.50045 0.210351
179 1 0.399325 0.703062 0.0575724
309 2 0.395764 0.547584 0.089265
283 1 0.451885 0.505336 0.24972
239 1 0.578326 0.709867 0.000909237
339 2 0.647275 0.664141 0.341482
229 1 0.533987 0.630451 0.315286
216 1 0.38207 0.662704 0.311298
274 1 0.46414 0.726147 0.433507
221 1 0.604052 0.602851 0.450763
46 1 0.445212 0.500074 0.409382
213 1 0.575818 0.548259 0.625846
134 1 0.463798 0.605045 0.526445
74 1 0.582666 0.708048 0.569064
91 1 0.443635 0.607544 0.672185
228 1 0.393222 0.727103 0.586234
4 1 0.573923 0.708743 0.728067
113 1 0.56348 0.574384 0.950268
23 1 0.414099 0.596178 0.952359
130 1 0.575658 0.539177 0.768219
121 1 0.506353 0.663729 0.849121
191 1 0.663748 0.651903 0.841894
305 2 0.406029 0.590984 0.805857
84 1 0.648927 0.892972 0.119391
334 2 0.639909 0.829047 0.00127401
272 1 0.539725 0.774487 0.154884
315 2 0.431502 0.829827 0.171715
65 1 0.512302 0.845684 0.0185691
208 1 0.42288 0.965424 0.0709741
219 1 0.570443 0.988912 0.0181665
17 1 0.485297 0.778667 0.293958
132 1 0.474429 0.887865 0.392705
333 2 0.379225 0.806494 0.348569
341 2 0.611024 0.883571 0.375698
9 1 0.583151 0.885152 0.254143
70 1 0.610969 0.769365 0.433791
21 1 0.347176 0.833205 0.490621
93 1 0.65141 0.749873 0.266505
146 1 0.593566 0.92976 0.491222
107 1 0.434246 0.918258 0.249664
77 1 0.432096 0.979732 0.532288
117 1 0.493893 0.830221 0.534021
201 1 0.592132 0.871742 0.675834
223 1 0.419439 0.886829 0.656109
282 1 0.662775 0.988026 0.747869
331 2 0.481295 0.76863 0.650217
273 1 0.480199 0.998855 0.742771
6 1 0.372102 0.895555 0.826238
122 1 0.635613 0.911461 0.892266
152 1 0.518648 0.841236 0.809978
138 1 0.408276 0.759841 0.908786
320 2 0.3958 0.858423 0.974976
99 1 0.336277 0.992228 0.932804
332 2 0.596754 0.761766 0.870532
185 1 0.487248 0.95086 0.899892
287 1 0.401444 0.759667 0.749177
184 1 0.831494 0.0334494 0.0765157
29 1 0.664878 0.2044 0.108143
141 1 0.833132 0.17259 0.157459
230 1 0.951008 0.0676593 0.185057
127 1 0.78266 0.17742 0.00662605
250 1 0.818151 0.0201219 0.228054
102 1 0.679963 0.046687 0.0941675
16 1 0.710356 0.118836 0.239969
325 2 0.75016 0.0808008 0.401598
159 1 0.943867 0.171743 0.441642
278 1 0.880571 0.0414664 0.407755
324 2 0.915277 0.0750393 0.300398
66 1 0.822088 0.161652 0.334164
256 1 0.667172 0.178097 0.37613
115 1 0.994399 0.178481 0.298362
131 1 0.796933 0.165919 0.49587
162 1 0.75715 0.0182481 0.603268
165 1 0.850695 0.120585 0.718834
63 1 0.950047 0.160048 0.617695
112 1 0.961399 0.0285527 0.53385
35 1 0.792369 0.24745 0.636718
175 1 0.982976 0.016483 0.708661
238 1 0.942969 0.0520147 0.846507
24 1 0.87057 0.197678 0.860712
41 1 0.756247 0.0742947 0.831025
352 2 0.83138 0.0908507 0.932377
163 1 0.691367 0.214218 0.869441
20 1 0.727417 0.0263288 0.95689
316 2 0.993145 0.202755 0.886882
19 1 0.945537 0.13763 1.00101
337 2 0.767084 0.213999 0.7522
32 1 0.952478 0.268595 0.119402
64 1 0.783919 0.317471 0.0820678
218 1 0.85769 0.467985 0.15112
291 2 0.752303 0.421339 0.000505894
167 1 0.89948 0.388473 0.0135883
190 1 0.708422 0.490292 0.101738
312 2 0.729315 0.384937 0.370808
254 1 0.88056 0.455955 0.332134
71 1 0.922187 0.392392 0.459523
177 1 0.747286 0.275024 0.268263
124 1 0.802984 0.304166 0.419733
169 1 0.888941 0.309147 0.259353
76 1 0.754207 0.430681 0.252558
149 1 0.838028 0.392319 0.61682
343 2 0.867651 0.256719 0.540053
209 1 0.934337 0.296363 0.693002
268 1 0.926907 0.450696 0.718057
350 2 0.724526 0.347876 0.661811
205 1 0.728059 0.468272 0.705468
193 1 0.717854 0.381808 0.519421
54 1 0.829362 0.4674 0.838779
83 1 0.804787 0.340467 0.75634
296 2 0.884628 0.250236 0.97302
57 1 0.781134 0.329412 0.917965
15 1 0.973441 0.483075 0.873292
44 1 0.933222 0.350586 0.851751
73 1 0.684923 0.490472 0.910571
123 1 0.967455 0.544363 0.0801646
262 1 0.972583 0.538809 0.244369
195 1 0.796345 0.614428 0.148841
292 2 0.771662 0.71744 0.241572
211 1 0.939156 0.680851 0.232207
353 2 0.953982 0.717546 0.0952277
39 1 0.836186 0.515808 0.000955839
235 1 0.848702 0.685664 0.0182613
351 2 0.957832 0.741105 0.397647
50 1 0.871404 0.624837 0.37672
212 1 0.741795 0.690572 0.417753
37 1 0.758891 0.50811 0.414704
158 1 0.719117 0.590705 0.278978
234 1 0.980647 0.645639 0.485057
306 2 0.823874 0.627926 0.498439
82 1 0.995875 0.528587 0.388822
330 2 0.848194 0.576144 0.265169
7 1 0.836656 0.572582 0.666733
88 1 0.897477 0.721511 0.623328
207 1 0.739095 0.703917 0.564729
143 1 0.700098 0.623341 0.695009
300 2 0.951605 0.589202 0.600067
242 1 0.708802 0.534115 0.553513
214 1 0.874271 0.526714 0.51999
170 1 0.816767 0.694279 0.763377
48 1 0.796288 0.601334 0.87832
336 2 0.705146 0.552052 0.808327
311 2 0.871848 0.699585 0.887322
285 1 0.959727 0.618651 0.93044
261 1 0.922423 0.594902 0.784608
265 1 0.708804 0.614585 0.981078
135 1 0.911658 0.89729 0.21927
198 1 0.779017 0.885985 0.0253544
247 1 0.845961 0.776085 0.152601
318 2 0.853156 0.919558 0.115604
217 1 0.975446 0.98028 0.0606917
255 1 0.766067 0.879091 0.231836
281 1 0.703004 0.754478 0.10131
111 1 0.922301 0.842466 0.0391698
304 2 0.671393 0.993859 0.212879
240 1 0.912337 0.879548 0.392391
252 1 0.863604 0.766827 0.474697
275 1 0.73717 0.850828 0.373486
203 1 0.851936 0.769204 0.316209
210 1 0.748264 0.973778 0.455438
297 2 0.837368 0.934733 0.318427
182 1 0.871754 0.897804 0.555052
100 1 0.766785 0.86997 0.676828
241 1 0.913392 0.840145 0.718336
227 1 0.709627 0.843683 0.522549
345 2 0.86772 0.995801 0.645915
322 2 0.682512 0.79281 0.637772
359 2 0.663659 0.944462 0.602264
264 1 0.831625 0.8259 0.844905
307 2 0.7608 0.910107 0.879762
150 1 0.969046 0.749142 0.835215
269 1 0.681014 0.804644 0.788137
298 2 0.935999 0.905539 0.81972
22 1 0.862186 0.953627 0.922349
174 1 0.851272 0.976337 0.767047
49 1 0.738287 0.75713 0.940338
ITEM: TIMESTEP
20000
ITEM: NUMBER OF ATOMS
360
ITEM: BOX BOUNDS pp pp pp
0.0000000000000000e+00 6.6943295008216896e+00
0.0000000000000000e+00 6.6943295008216896e+00
0.0000000000000000e+00 6.6943295008216896e+00
ITEM: ATOMS id type xs ys zs
344 2 0.267637 0.0680724 0.126866
178 1 0.203858 0.153135 0.0369077
19 1 0.0270182 0.148806 0.0490985
231 1 0.142549 0.186091 0.174669
187 1 0.291109 0.209643 0.169972
42 1 0.113663 0.0235485 0.164934
115 1 0.0724828 0.157957 0.304377
45 1 0.206531 0.12196 0.375918
319 2 0.221144 0.207154 0.457648
324 2 0.0509033 0.0256998 0.4879
335 2 0.293551 0.179839 0.297068
260 1 0.2856 0.058106 0.249135
175 1 0.149304 0.00244196 0.640704
63 1 0.0631131 0.153971 0.670455
75 1 0.278866 0.122646 0.537162
280 1 0.251274 0.106881 0.701014
145 1 0.123602 0.113042 0.508982
290 2 0.311036 0.0344187 0.620806
120 1 0.0184324 0.144594 0.886609
313 2 0.148945 0.143875 0.910359
222 1 0.117796 0.0446498 0.983251
160 1 0.237284 0.0574985 0.869084
174 1 0.11018 0.0873864 0.791468
31 1 0.128713 0.242834 0.816043
323 2 0.299329 0.148335 0.930319
103 1 0.182008 0.44709 0.18811
118 1 0.0190815 0.4299 0.193633
202 1 0.173981 0.313997 0.11154
346 2 0.237768 0.421036 0.0660879
109 1 0.0627463 0.391841 0.0106599
267 1 0.0209008 0.302067 0.125713
176 1 0.325525 0.361188 0.123868
155 1 0.230733 0.287618 0.282787
90 1 0.151645 0.467283 0.498157
286 1 0.156056 0.444084 0.332486
36 1 0.327203 0.429325 0.267719
237 1 0.25025 0.360495 0.424707
82 1 0.0374091 0.382818 0.41266
137 1 0.073623 0.309736 0.278177
308 2 0.238436 0.498549 0.402123
243 1 0.124598 0.264984 0.405069
47 1 0.0921937 0.33272 0.691043
110 1 0.305989 0.276413 0.561389
215 1 0.147822 0.25308 0.573829
108 1 0.21768 0.400033 0.623492
68 1 0.301371 0.493242 0.530217
104 1 0.0457211 0.392526 0.56892
114 1 0.229225 0.262924 0.701069
81 1 0.213377 0.407167 0.785227
314 2 0.105522 0.353006 0.882819
85 1 0.214389 0.359057 0.958667
310 2 0.307497 0.374353 0.861356
58 1 0.0503119 0.435074 0.797471
28 1 0.0975813 0.247379 0.977689
342 2 0.15641 0.465342 0.880049
1 1 0.305673 0.503394 0.852268
128 1 0.281223 0.252236 0.847173
126 1 0.15737 0.590123 0.10131
172 1 0.249829 0.646609 0.230732
61 1 0.29274 0.651512 0.0439789
180 1 0.294792 0.511589 0.140502
353 2 0.102854 0.50868 0.00426676
140 1 0.0395538 0.658052 0.150686
225 1 0.102847 0.565526 0.246947
69 1 0.0614724 0.547165 0.3986
46 1 0.300547 0.648577 0.492335
79 1 0.198355 0.628928 0.369994
283 1 0.329742 0.570749 0.353972
52 1 0.0524266 0.703736 0.397171
301 2 0.115131 0.710471 0.279836
321 2 0.240574 0.531428 0.262122
216 1 0.191482 0.74993 0.439997
164 1 0.093899 0.602105 0.539173
245 1 0.190951 0.707496 0.585891
8 1 0.231518 0.570799 0.640169
62 1 0.0991379 0.661421 0.712417
268 1 0.0798761 0.507577 0.675419
40 1 0.254126 0.661243 0.899817
194 1 0.170822 0.544826 0.792986
327 2 0.146551 0.675523 0.836651
25 1 0.123719 0.611978 0.94327
33 1 0.00304002 0.514016 0.910697
329 2 0.0606787 0.747767 0.914885
277 1 0.227796 0.517253 0.9814
270 1 0.320087 0.62553 0.761773
55 1 0.125043 0.875952 0.106005
125 1 0.165235 0.748525 0.15299
13 1 0.235655 0.981708 0.0446894
188 1 0.233529 0.931634 0.189284
10 1 0.291511 0.836093 0.069962
338 2 0.11877 0.916909 0.238544
98 1 0.15748 0.751607 0.00254206
135 1 0.0618529 0.833857 0.30549
230 1 0.0719397 0.998285 0.323064
151 1 0.106738 0.89134 0.435805
295 2 0.22277 0.876066 0.448427
72 1 0.210051 0.819724 0.305476
30 1 0.215368 0.962117 0.335289
232 1 0.224599 0.999186 0.475895
224 1 0.326358 0.752546 0.373747
204 1 0.0298239 0.8958 0.577049
5 1 0.046924 0.958456 0.73697
228 1 0.310626 0.764099 0.697727
2 1 0.129325 0.816917 0.685064
246 1 0.181686 0.874658 0.567848
331 2 0.294421 0.922334 0.542143
156 1 0.0525221 0.748598 0.552977
168 1 0.32077 0.791371 0.544992
251 1 0.0167954 0.843475 0.986235
6 1 0.18654 0.899087 0.919429
287 1 0.302124 0.808088 0.926973
3 1 0.224861 0.950088 0.762426
161 1 0.0466695 0.822938 0.82602
186 1 0.204912 0.780186 0.814924
357 2 0.123385 0.981665 0.851026
105 1 -0.00532891 0.977967 0.897584
208 1 0.357577 0.119706 0.0380567
253 1 0.566431 0.139089 0.0925903
304 2 0.66008 0.0305525 0.20624
43 1 0.438823 0.220401 0.109495
183 1 0.429029 0.111211 0.227188
254 1 0.550715 0.234074 0.218088
328 2 0.484156 0.0569315 0.0432332
129 1 0.530818 0.00257893 0.190301
56 1 0.580276 0.0846115 0.323455
181 1 0.480765 0.183061 0.370943
279 1 0.355132 0.0636826 0.387542
77 1 0.508791 0.0670464 0.447438
142 1 0.575391 0.208159 0.498322
96 1 0.345527 0.223807 0.415612
256 1 0.615797 0.241927 0.354112
116 1 0.521693 0.183465 0.682632
133 1 0.432545 0.166023 0.534012
26 1 0.370193 0.18657 0.674962
273 1 0.458611 0.0456149 0.656204
136 1 0.630918 0.0512656 0.68987
325 2 0.555288 0.112143 0.577292
223 1 0.380412 0.0127826 0.527469
148 1 0.622476 0.166387 0.800584
27 1 0.360565 0.012054 0.759103
284 1 0.422583 0.220854 0.825661
12 1 0.491074 0.195738 0.965428
185 1 0.406242 0.0672907 0.91551
51 1 0.50489 0.0645017 0.80116
219 1 0.584026 0.057233 0.941519
294 2 0.340191 0.139223 0.801301
190 1 0.604627 0.435708 0.0112972
189 1 0.489418 0.347873 0.0336463
347 2 0.561982 0.451401 0.126779
76 1 0.609685 0.481541 0.237682
157 1 0.469452 0.373463 0.180968
192 1 0.636684 0.338084 0.147149
64 1 0.648368 0.255491 0.0271685
355 2 0.350899 0.35658 0.360895
119 1 0.445465 0.302869 0.466337
53 1 0.399707 0.265586 0.257281
249 1 0.508006 0.373408 0.340251
358 2 0.57467 0.313818 0.435381
173 1 0.407439 0.460319 0.426662
312 2 0.608141 0.335085 0.275129
213 1 0.601295 0.470755 0.673081
78 1 0.454695 0.483346 0.561462
153 1 0.612272 0.299807 0.625597
221 1 0.447883 0.329475 0.620627
303 2 0.467024 0.437144 0.69541
38 1 0.344508 0.488221 0.704588
266 1 0.588494 0.421767 0.504018
288 1 0.365779 0.335259 0.736826
233 1 0.574687 0.321978 0.913969
166 1 0.351066 0.440521 1.00154
95 1 0.442291 0.374734 0.869881
130 1 0.620515 0.444121 0.845549
276 1 0.536042 0.356975 0.756496
18 1 0.355564 0.269072 0.988242