
include ${pot}.lmp
include kalj.lmp
units lj
atom_style atomic

variable dimensions equal 3
variable density equal 1.2
variable fraca equal 0.8

dimension ${dimensions}
dimension 3
read_restart ${prevbasename}.final.lmprestart.${prevsteps}
read_restart equil/kalj_T0.7_n360_v300_180000_1.final.lmprestart.${prevsteps}
read_restart equil/kalj_T0.7_n360_v300_180000_1.final.lmprestart.180000
Reading restart file ...
  restart file = 15 Sep 2022, LAMMPS = 15 Sep 2022
  restoring atom style atomic from restart
  orthogonal box = (0 0 0) to (6.6943295 6.6943295 6.6943295)
  3 by 4 by 4 MPI processor grid
  restoring pair style lj/cut from restart
  360 atoms
  read_restart CPU = 0.119 seconds
include ${pot}_particles.lmp
include kalj_particles.lmp
mass * 1.0 #  set mass 1.0 for all types

pair_style lj/cut 2.5
#pair coeffs type1 type2 eps sigma
pair_coeff 1 1 1.0 1.00 2.5
pair_coeff 1 2 1.5 0.80 2.0
pair_coeff 2 2 0.5 0.88 2.2
pair_modify shift yes
reset_timestep 0

print "Setting up annealing run"
Setting up annealing run
dump 1 all atom ${dumptime} ${basename}.lammpstrj
dump 1 all atom 70000 ${basename}.lammpstrj
dump 1 all atom 70000 equil/kalj_T0.65_n360_v300_350000_1.lammpstrj
#dump_modify 1 sort id scale no

restart ${restarttime} ${basename}.restart
restart 350000 ${basename}.restart
restart 350000 equil/kalj_T0.65_n360_v300_350000_1.restart
restart ${steps} ${basename}.final.lmprestart
restart 350000 ${basename}.final.lmprestart
restart 350000 equil/kalj_T0.65_n360_v300_350000_1.final.lmprestart

thermo ${thermotime}
thermo 70000
timestep ${timestep}
timestep 0.003

neighbor 0.5 bin
neigh_modify every 1 delay ${neighborstep} check yes
neigh_modify every 1 delay 25 check yes

velocity all create ${temp} ${id} dist gaussian
velocity all create 0.65 ${id} dist gaussian
velocity all create 0.65 1 dist gaussian
fix 1 all nvt temp ${temp} ${temp} ${taut}
fix 1 all nvt temp 0.65 ${temp} ${taut}
fix 1 all nvt temp 0.65 0.65 ${taut}
fix 1 all nvt temp 0.65 0.65 0.3
Resetting global fix info from restart file:
  fix style: nvt, fix ID: 1
run ${steps}
run 350000
Generated 0 of 1 mixed pair_coeff terms from geometric mixing rule
All restart file global fix info was re-assigned
Neighbor list info ...
  update: every = 1 steps, delay = 25 steps, check = yes
  max neighbors/atom: 2000, page size: 100000
  master list distance cutoff = 3
  ghost atom cutoff = 3
  binsize = 1.5, bins = 5 5 5
  1 neighbor lists, perpetual/occasional/extra = 1 0 0
  (1) pair lj/cut, perpetual
      attributes: half, newton on
      pair build: half/bin/atomonly/newton
      stencil: half/bin/3d
      bin: standard
Per MPI rank memory allocation (min/avg/max) = 3.961 | 3.961 | 3.961 Mbytes
   Step          Temp          E_pair         E_mol          TotEng         Press     
         0   0.65          -6.5574449      0             -5.5851532      6.0512477    
     70000   0.68893776    -6.6193133      0             -5.5887773      5.8058924    
    140000   0.65123279    -6.5521826      0             -5.5780469      6.1342626    
    210000   0.63055348    -6.7066559      0             -5.7634529      5.2453111    
    280000   0.70366324    -6.6086493      0             -5.5560863      5.9097438    
    350000   0.66391008    -6.5748075      0             -5.5817086      6.2111259    
Loop time of 16.7793 on 48 procs for 350000 steps with 360 atoms

Performance: 5406662.100 tau/day, 20859.036 timesteps/s, 7.509 Matom-step/s
99.6% CPU use with 48 MPI tasks x 1 OpenMP threads

MPI task timing breakdown:
Section |  min time  |  avg time  |  max time  |%varavg| %total
---------------------------------------------------------------
Pair    | 1.065      | 1.1368     | 1.213      |   3.1 |  6.77
Neigh   | 0.19567    | 0.20509    | 0.21763    |   1.1 |  1.22
Comm    | 12.46      | 12.841     | 13.321     |   6.6 | 76.53
Output  | 0.021299   | 0.021302   | 0.021346   |   0.0 |  0.13
Modify  | 1.6068     | 2.1404     | 2.5034     |  16.0 | 12.76
Other   |            | 0.4343     |            |       |  2.59

Nlocal:            7.5 ave          10 max           4 min
Histogram: 1 6 0 4 0 10 14 0 10 3
Nghost:        575.062 ave         601 max         552 min
Histogram: 2 2 6 9 7 8 9 2 2 1
Neighs:        433.729 ave         572 max         211 min
Histogram: 1 1 4 6 3 6 6 9 7 5

Total # of neighbors = 20819
Ave neighs/atom = 57.830556
Neighbor list builds = 10999
Dangerous builds = 395
Total wall time: 0:00:17
