ITEM: TIMESTEP
0
ITEM: NUMBER OF ATOMS
360
ITEM: BOX BOUNDS pp pp pp
0.0000000000000000e+00 6.6943295008216896e+00
0.0000000000000000e+00 6.6943295008216896e+00
0.0000000000000000e+00 6.6943295008216896e+00
ITEM: ATOMS id type xs ys zs
293 2 0.0719703 0.231709 0.101795
155 1 0.0532076 0.146882 0.20617
30 1 0.150249 0.0333498 0.111341
97 1 0.201018 0.194339 0.0800684
271 1 0.00958745 0.066197 0.0772599
230 1 0.109374 0.135882 0.008577
21 1 0.282894 0.0881692 0.157021
237 1 0.307419 0.206623 0.23205
222 1 0.244831 0.00807331 0.00643619
2 1 0.178335 0.0424761 0.428605
71 1 0.252272 0.0437095 0.330063
325 2 0.00664342 0.0175737 0.364096
192 1 0.120143 0.109014 0.336968
232 1 0.311538 0.0143649 0.462594
137 1 0.117729 0.23906 0.262182
264 1 0.0372798 0.0460463 0.469394
298 2 0.0263029 0.0710333 0.656075
131 1 0.245591 0.0547497 0.669336
81 1 0.279383 0.191762 0.674337
114 1 0.204836 0.00639039 0.564462
206 1 0.12661 0.135067 0.680653
66 1 0.0234778 0.138746 0.577461
280 1 0.239979 0.196638 0.506078
208 1 0.0692714 0.0263592 0.94483
260 1 0.206657 0.119232 0.910783
270 1 0.225187 0.242564 0.942175
18 1 0.324619 0.148188 0.816113
258 1 0.120531 0.135416 0.825483
42 1 0.253972 0.0343086 0.800292
345 2 0.299051 0.0405268 0.910366
199 1 0.0777473 0.444181 0.212215
309 2 0.0533265 0.462725 0.106668
231 1 0.154063 0.34787 0.155383
188 1 0.121959 0.293775 0.0216992
180 1 0.261123 0.445671 0.0474855
32 1 0.273646 0.405798 0.180055
267 1 0.322006 0.261439 0.0590412
33 1 0.016789 0.296936 0.178686
118 1 0.241224 0.285337 0.400332
69 1 0.233108 0.413869 0.437736
82 1 0.100246 0.441187 0.347381
96 1 0.17312 0.354881 0.288175
350 2 0.120862 0.264228 0.40438
76 1 0.00617638 0.355519 0.491051
70 1 0.307829 0.443584 0.317867
1 1 0.134953 0.443485 0.685464
306 2 0.149706 0.427614 0.51513
274 1 0.194473 0.288524 0.732052
103 1 0.124879 0.310095 0.590795
117 1 0.231356 0.395055 0.588267
316 2 0.265966 0.448617 0.706975
176 1 0.301243 0.284911 0.83182
338 2 0.19006 0.308549 0.844712
294 2 0.0588561 0.415272 0.771017
58 1 0.0793448 0.29486 0.788661
104 1 0.153889 0.419872 0.819803
303 2 0.255497 0.384426 0.928047
286 1 0.331563 0.45511 0.82889
123 1 0.0451608 0.37295 0.965192
48 1 0.0732164 0.606437 0.17381
189 1 0.125451 0.541324 0.0373112
202 1 0.200504 0.506243 0.148899
305 2 0.270997 0.596868 0.112224
23 1 0.130954 0.728454 0.122545
196 1 0.22451 0.606651 0.216433
25 1 0.0403391 0.707451 0.0160701
285 1 0.0319434 0.737753 0.229464
308 2 0.198956 0.511492 0.290287
86 1 0.0265348 0.537968 0.286722
167 1 0.105617 0.656257 0.32364
307 2 0.124052 0.632117 0.430339
300 2 0.0706975 0.50822 0.453956
52 1 0.241403 0.62645 0.349777
321 2 0.327577 0.701244 0.397871
216 1 0.249468 0.566115 0.459942
61 1 0.28641 0.735356 0.259106
164 1 0.162844 0.54739 0.538348
288 1 0.134789 0.720822 0.677751
186 1 0.271678 0.618912 0.614936
248 1 0.236166 0.700563 0.506126
194 1 0.106897 0.685206 0.555704
149 1 0.0103465 0.528206 0.547935
354 2 0.0731478 0.579926 0.643878
246 1 0.308857 0.72275 0.73452
277 1 0.0748202 0.50012 0.907282
272 1 0.00421155 0.704203 0.851349
228 1 0.197737 0.621178 0.762793
91 1 0.238575 0.511947 0.920218
4 1 0.272545 0.676954 0.886315
342 2 0.111831 0.540545 0.795556
360 2 0.0850968 0.640503 0.926902
74 1 0.180771 0.64611 0.987619
326 2 0.325829 0.554646 0.840472
161 1 0.132221 0.709912 0.881307
17 1 0.13538 0.846763 0.079878
107 1 0.327157 0.873099 0.0834726
172 1 0.0530347 0.889482 0.19541
315 2 0.331785 0.759006 0.141938
225 1 0.145852 0.993979 0.235431
215 1 0.210825 0.868906 0.179519
59 1 0.323308 0.934845 0.232289
353 2 0.0804561 0.967235 0.0464178
126 1 0.210905 0.927761 0.352025
247 1 0.217994 0.801113 0.348696
182 1 0.0803123 0.8806 0.485691
357 2 0.0782246 0.800791 0.316286
100 1 0.0615366 0.920154 0.333376
147 1 0.3321 0.80122 0.42303
289 2 0.183777 0.785226 0.251711
151 1 0.114 0.766027 0.438283
3 1 0.261827 0.891021 0.470285
136 1 0.326329 0.880124 0.613
62 1 0.218661 0.818522 0.746483
40 1 0.0410838 0.95251 0.667727
105 1 0.179663 0.850529 0.601047
5 1 0.142857 0.890613 0.885239
284 1 0.289232 0.886841 0.872369
349 2 0.0474408 0.798837 0.763007
323 2 0.115545 0.990797 0.802777
287 1 0.23473 0.814831 0.982722
98 1 0.00232427 0.909858 0.990478
297 2 0.53184 0.126421 0.0477633
320 2 0.597316 0.0405426 0.0509985
113 1 0.661242 0.170647 0.151514
185 1 0.45876 0.18509 0.136385
99 1 0.491051 0.0361326 0.160453
224 1 0.362686 0.0872855 0.0310378
187 1 0.615945 0.0258152 0.17123
253 1 0.526037 0.146377 0.241817
181 1 0.519854 0.146113 0.382054
108 1 0.424295 0.18808 0.489724
10 1 0.369508 0.0892567 0.356212
45 1 0.439121 0.0136199 0.281461
128 1 0.457895 0.00608955 0.426221
36 1 0.349503 0.228772 0.355058
259 1 0.647803 0.101691 0.393174
13 1 0.558726 0.00228823 0.311103
200 1 0.566422 0.245607 0.483886
95 1 0.55137 0.220347 0.638603
51 1 0.415876 0.237394 0.655202
47 1 0.410512 0.040275 0.694325
346 2 0.465112 0.0805605 0.516695
11 1 0.59768 0.101874 0.550422
275 1 0.356327 0.125752 0.577044
282 1 0.49993 0.00463007 0.60405
94 1 0.421081 0.0123047 0.898801
34 1 0.443069 0.194912 0.98512
57 1 0.575684 0.102603 0.947521
142 1 0.609975 0.236528 0.792727
332 2 0.408564 0.144911 0.893134
127 1 0.478926 0.0877224 0.819253
273 1 0.605654 0.0991349 0.752387
244 1 0.384949 0.408161 0.0852725
335 2 0.581992 0.365796 0.167139
197 1 0.603859 0.261615 0.0802401
344 2 0.377975 0.276172 0.149322
263 1 0.58686 0.478297 0.0595914
38 1 0.507285 0.451759 0.167109
56 1 0.632278 0.284305 0.222278
157 1 0.539604 0.377603 0.42093
249 1 0.49682 0.304649 0.305095
328 2 0.446703 0.299271 0.48249
339 2 0.373026 0.322605 0.3034
53 1 0.626308 0.408701 0.310923
144 1 0.427912 0.419123 0.389641
317 2 0.397801 0.423375 0.265275
46 1 0.518547 0.406529 0.551793
8 1 0.382827 0.401479 0.647462
243 1 0.355741 0.336459 0.554451
68 1 0.560395 0.449776 0.659673
130 1 0.501025 0.301163 0.744141
15 1 0.63392 0.292382 0.922508
337 2 0.532271 0.280369 0.848661
148 1 0.414911 0.269493 0.884591
359 2 0.536928 0.488119 0.866068
299 2 0.449613 0.417005 0.883648
276 1 0.65013 0.420812 0.889395
133 1 0.382773 0.350678 0.753719
233 1 0.501354 0.361311 0.982194
78 1 0.462332 0.512883 0.0617146
152 1 0.575112 0.633232 0.0707351
9 1 0.364302 0.705937 0.0490143
158 1 0.532184 0.725859 0.19138
92 1 0.65256 0.606792 0.222695
79 1 0.506966 0.576955 0.180127
283 1 0.350951 0.525929 0.190772
203 1 0.665669 0.740204 0.0693375
116 1 0.362041 0.554252 0.385599
193 1 0.394661 0.626469 0.278612
111 1 0.529818 0.68227 0.309926
50 1 0.655292 0.655733 0.422305
257 1 0.530551 0.523019 0.313578
77 1 0.425684 0.713495 0.41633
333 2 0.404727 0.611065 0.466579
75 1 0.610558 0.557232 0.472335
221 1 0.395281 0.661276 0.583958
134 1 0.432632 0.504246 0.7024
355 2 0.53569 0.65423 0.517838
331 2 0.342384 0.530347 0.616199
173 1 0.579225 0.61089 0.679904
85 1 0.348516 0.603005 0.719976
341 2 0.49309 0.739619 0.601161
156 1 0.423007 0.521305 0.516202
223 1 0.51914 0.60156 0.826497
121 1 0.496866 0.586109 0.950445
143 1 0.622319 0.656792 0.94207
220 1 0.366064 0.589881 0.992265
27 1 0.378367 0.655215 0.832293
311 2 0.491821 0.726205 0.792097
201 1 0.661504 0.557919 0.770302
255 1 0.538619 0.906456 0.140603
132 1 0.441444 0.838084 0.237516
141 1 0.636587 0.901026 0.223288
72 1 0.46268 0.980846 0.0358278
135 1 0.65982 0.759869 0.236261
252 1 0.431553 0.870515 0.435419
348 2 0.366147 0.796091 0.310635
295 2 0.416592 0.907967 0.328152
14 1 0.531047 0.789007 0.448041
87 1 0.582692 0.980236 0.459264
212 1 0.609456 0.888707 0.371458
162 1 0.505959 0.927299 0.719195
269 1 0.581725 0.79271 0.678149
49 1 0.615396 0.769567 0.556367
93 1 0.48115 0.860954 0.567716
7 1 0.652462 0.894762 0.556205
327 2 0.408068 0.777682 0.51608
179 1 0.393818 0.870438 0.966439
60 1 0.578028 0.985706 0.842021
301 2 0.402262 0.917089 0.805395
65 1 0.479086 0.860672 0.853758
322 2 0.340977 0.817645 0.809962
122 1 0.58312 0.927357 0.977556
138 1 0.619395 0.780282 0.927934
88 1 0.599427 0.852792 0.796916
6 1 0.47376 0.758091 0.94623
240 1 0.859168 0.0451143 0.144948
129 1 0.745541 0.0925897 0.218253
250 1 0.909371 0.155175 0.0322345
256 1 0.860144 0.173671 0.141533
106 1 0.796 0.12668 0.338118
35 1 0.908384 0.12584 0.416481
340 2 0.934609 0.217157 0.268653
63 1 0.940573 0.111884 0.282216
16 1 0.832079 0.0231348 0.408242
330 2 0.81284 0.104001 0.468612
178 1 0.99745 0.237777 0.377782
210 1 0.884177 0.0994993 0.578392
166 1 0.669294 0.169877 0.642868
241 1 0.790381 0.188974 0.66653
171 1 0.89697 0.0608077 0.734934
319 2 0.74833 0.056418 0.690735
165 1 0.752608 0.0956221 0.552664
169 1 0.943018 0.24003 0.528621
314 2 0.86866 0.208909 0.608537
124 1 0.702948 0.237505 0.509908
55 1 0.981402 0.1595 0.708177
102 1 0.901255 0.0465457 0.859534
292 2 0.999713 0.127938 0.979721
175 1 0.870444 0.176723 0.787658
31 1 0.713858 0.114945 0.812639
184 1 0.86637 0.236866 0.919314
28 1 0.788598 0.116649 0.93768
83 1 0.735059 0.240758 0.844881
54 1 0.726031 0.0044601 0.984223
163 1 0.70664 0.198296 0.989053
160 1 0.991441 0.19274 0.853279
19 1 0.880829 0.0407827 0.995883
80 1 0.937682 0.299947 0.00959877
218 1 0.792083 0.30474 0.0169749
43 1 0.850964 0.291293 0.174734
262 1 0.770865 0.493988 0.179173
115 1 0.912726 0.418658 0.161672
29 1 0.694146 0.386334 0.142806
296 2 0.774264 0.25191 0.103623
302 2 0.708035 0.348638 0.23854
139 1 0.974876 0.346693 0.304162
226 1 0.908828 0.48182 0.268383
313 2 0.947975 0.394535 0.414938
64 1 0.877789 0.269526 0.412808
159 1 0.84259 0.449205 0.402698
195 1 0.757566 0.453436 0.296759
119 1 0.727315 0.326509 0.387197
343 2 0.831112 0.376904 0.27217
153 1 0.691198 0.450944 0.465904
177 1 0.788086 0.263893 0.28215
44 1 0.990976 0.422941 0.657422
347 2 0.781666 0.463771 0.662175
312 2 0.694766 0.468132 0.57841
358 2 0.825106 0.353373 0.56096
214 1 0.89887 0.422965 0.527753
20 1 0.80544 0.345028 0.657148
112 1 0.96467 0.287568 0.645916
110 1 0.682428 0.395528 0.718892
109 1 0.942357 0.364271 0.883195
281 1 0.791877 0.354048 0.898958
24 1 0.893287 0.496218 0.842113
213 1 0.761661 0.470402 0.802558
205 1 0.818609 0.463174 0.959568
242 1 0.870828 0.364364 0.767201
174 1 0.739261 0.600669 0.123611
211 1 0.932569 0.587562 0.195089
140 1 0.887288 0.670481 0.0691411
198 1 0.8678 0.723767 0.193997
39 1 0.922193 0.526872 0.0352177
154 1 0.950578 0.507791 0.417473
26 1 0.988466 0.714267 0.469277
229 1 0.671851 0.540652 0.356375
236 1 0.787253 0.645977 0.279768
278 1 0.955222 0.690248 0.329635
183 1 0.848823 0.598474 0.425601
329 2 0.813513 0.696166 0.573314
227 1 0.697115 0.720107 0.65698
254 1 0.8731 0.597117 0.56139
261 1 0.744485 0.574886 0.671088
207 1 0.865973 0.55002 0.724954
234 1 0.963942 0.623208 0.625973
266 1 0.712559 0.631999 0.531071
101 1 0.977217 0.60402 0.958083
239 1 0.673904 0.53726 0.947474
265 1 0.861991 0.640555 0.888371
73 1 0.720409 0.652702 0.856182
291 2 0.868924 0.70402 0.794202
90 1 0.990305 0.51187 0.763047
219 1 0.770367 0.638689 0.994314
84 1 0.767128 0.900676 0.146847
238 1 0.843755 0.810774 0.0328667
217 1 0.966821 0.947077 0.116631
67 1 0.708192 0.874718 0.0337407
351 2 0.782614 0.791925 0.109261
324 2 0.826876 0.931201 0.0530429
310 2 0.987412 0.808617 0.0393096
251 1 0.914997 0.857954 0.197894
290 2 0.79155 0.899276 0.287406
279 1 0.68974 0.991755 0.340052
204 1 0.843145 0.751909 0.438724
168 1 0.896467 0.887721 0.397798
146 1 0.754303 0.929772 0.443353
190 1 0.946196 0.967152 0.264182
125 1 0.981353 0.822065 0.329044
170 1 0.795543 0.786369 0.27615
318 2 0.697808 0.770555 0.338343
150 1 0.799262 0.912024 0.565114
41 1 0.816715 0.906064 0.73312
336 2 0.977462 0.863223 0.651394
304 2 0.728351 0.829086 0.647106
209 1 0.691882 0.92411 0.729335
145 1 0.907551 0.945869 0.614631
245 1 0.728896 0.797854 0.50238
268 1 0.973887 0.752294 0.647509
37 1 0.909917 0.845039 0.522026
89 1 0.873615 0.891122 0.882891
22 1 0.749777 0.787205 0.86205
12 1 0.714814 0.924529 0.882178
235 1 0.901718 0.804682 0.763273
120 1 0.989203 0.919151 0.808189
352 2 0.873504 0.970246 0.796246
356 2 0.81063 0.994673 0.888011
191 1 0.979594 0.814808 0.911199
334 2 0.842522 0.751785 0.916358
ITEM: TIMESTEP
10000
ITEM: NUMBER OF ATOMS
360
ITEM: BOX BOUNDS pp pp pp
0.0000000000000000e+00 6.6943295008216896e+00
0.0000000000000000e+00 6.6943295008216896e+00
0.0000000000000000e+00 6.6943295008216896e+00
ITEM: ATOMS id type xs ys zs
137 1 0.135112 0.185244 0.205091
222 1 0.244983 0.0680418 0.140256
42 1 0.119258 0.0901529 0.0170528
267 1 0.312544 0.200311 0.161332
340 2 0.218026 0.173873 0.0774079
338 2 0.0270699 0.121317 0.114956
271 1 0.0890613 0.0323138 0.189848
94 1 0.290117 0.0189407 0.000695873
154 1 0.130828 0.0091362 0.434312
181 1 0.323759 0.119054 0.396444
237 1 0.0544726 0.238025 0.363227
96 1 0.262275 0.229314 0.302499
260 1 0.197761 0.0796198 0.308096
45 1 0.187333 0.169848 0.445235
155 1 0.0570045 0.0743897 0.331371
232 1 0.272364 0.0063508 0.476755
280 1 0.223355 0.0523204 0.619812
95 1 0.216539 0.183106 0.710074
47 1 0.303808 0.166832 0.554381
114 1 0.105244 0.216473 0.601123
44 1 0.0598292 0.203867 0.737772
131 1 0.0831817 0.0760165 0.641215
63 1 0.0545605 0.11542 0.50538
120 1 0.149979 0.162814 0.847536
316 2 0.0186158 0.107047 0.958149
31 1 0.0451939 0.0486694 0.805545
10 1 0.244946 0.0441236 0.783704
310 2 0.217006 0.0982364 0.92263
81 1 0.304447 0.186361 0.821773
28 1 0.00880709 0.237434 0.907653
231 1 0.141331 0.232043 0.985131
160 1 0.301856 0.20121 0.972706
321 2 0.179835 0.419775 0.116627
33 1 0.0421502 0.392173 0.105217
115 1 0.00335879 0.275783 0.210108
176 1 0.323742 0.328069 0.0690303
202 1 0.198502 0.297105 0.13934
178 1 0.274076 0.417442 0.20782
258 1 0.270589 0.459375 0.00353582
109 1 0.149935 0.368158 0.0075267
326 2 0.29202 0.455367 0.442402
355 2 0.285623 0.332944 0.350345
36 1 0.175149 0.317362 0.386598
243 1 0.041797 0.399565 0.393325
118 1 0.117535 0.36073 0.267101
8 1 0.207098 0.453488 0.341464
103 1 0.143608 0.458357 0.494412
294 2 0.212773 0.266883 0.629049
104 1 0.197307 0.43252 0.633842
215 1 0.0858632 0.33329 0.511367
108 1 0.235865 0.307901 0.519046
313 2 0.118238 0.334684 0.722172
286 1 0.320566 0.483504 0.558638
180 1 0.274047 0.334831 0.926729
15 1 0.0387885 0.440603 0.90673
58 1 0.128613 0.328614 0.855449
314 2 0.031085 0.340418 0.979285
85 1 0.235039 0.352577 0.771437
194 1 0.108365 0.443768 0.771425
270 1 0.314266 0.482447 0.861371
349 2 0.0871299 0.620413 0.0726223
309 2 0.252912 0.521487 0.115485
196 1 0.140515 0.520399 0.198282
126 1 0.222115 0.630321 0.0499079
225 1 0.121978 0.695553 0.191121
79 1 0.249561 0.615819 0.199643
277 1 0.116518 0.514058 0.0231995
125 1 0.0608054 0.744655 0.0570524
305 2 0.316818 0.743168 0.0326471
167 1 0.00779451 0.530154 0.135168
52 1 0.109808 0.701668 0.458436
69 1 0.159229 0.640343 0.322515
46 1 0.275467 0.594165 0.400816
308 2 0.0773009 0.507569 0.316466
139 1 0.00802411 0.602905 0.265737
82 1 0.0405129 0.561709 0.42618
300 2 0.1569 0.571291 0.427179
289 2 0.311527 0.677695 0.294546
164 1 0.198211 0.610774 0.540509
90 1 0.06802 0.566495 0.611418
171 1 0.14343 0.686686 0.684493
288 1 0.214115 0.570601 0.734906
186 1 0.29665 0.703362 0.689938
327 2 0.0687178 0.573684 0.756282
161 1 0.224855 0.723122 0.819455
285 1 0.103805 0.655523 0.889055
1 1 0.163076 0.527147 0.890438
25 1 0.323279 0.666342 0.919865
248 1 0.228414 0.777787 0.247512
59 1 0.193813 0.916268 0.16839
72 1 0.0659762 0.841987 0.179092
172 1 0.201165 0.790641 0.0812041
188 1 0.0954998 0.93412 0.0518857
301 2 0.228546 0.905778 0.0553932
315 2 0.325115 0.976686 0.121181
30 1 0.0979092 0.939204 0.302167
21 1 0.230705 0.896224 0.339305
168 1 0.146411 0.850883 0.478161
295 2 0.142193 0.812176 0.357105
147 1 0.323277 0.837105 0.478199
204 1 0.00521028 0.823607 0.435447
86 1 0.0351748 0.765612 0.306417
216 1 0.237763 0.750221 0.397783
112 1 0.0376829 0.934163 0.556224
354 2 0.191209 0.807389 0.684217
105 1 0.0713662 0.806294 0.624929
2 1 0.20603 0.901991 0.600786
3 1 0.325397 0.93922 0.705585
357 2 0.113075 0.943709 0.664896
156 1 0.22919 0.754108 0.567057
55 1 0.178461 0.902956 0.747937
287 1 0.26283 0.84621 0.936624
98 1 0.123052 0.803971 0.94183
5 1 0.1699 0.985914 0.902385
150 1 0.0859888 0.765433 0.781957
264 1 0.0667808 0.905205 0.845778
360 2 0.281192 0.86426 0.802928
208 1 0.411789 0.0669457 0.102713
253 1 0.464732 0.191207 0.195213
328 2 0.575272 0.125908 0.158075
187 1 0.574321 0.0575597 0.0316771
29 1 0.655597 0.173435 0.0769376
249 1 0.504692 0.198938 0.0244975
67 1 0.509576 0.032061 0.211212
344 2 0.379551 0.217653 0.0615755
13 1 0.333594 0.0130343 0.244119
11 1 0.475434 0.172205 0.464478
119 1 0.454993 0.0725061 0.336526
347 2 0.494054 0.191769 0.343771
142 1 0.616618 0.200244 0.409199
129 1 0.588094 0.0480673 0.358753
259 1 0.495116 0.011753 0.471264
290 2 0.36475 0.236996 0.46868
177 1 0.606472 0.175579 0.260738
335 2 0.353303 0.136397 0.271642
60 1 0.573328 0.0848479 0.71668
359 2 0.589188 0.218445 0.73615
197 1 0.632014 0.224063 0.609071
56 1 0.600544 0.0947851 0.539192
87 1 0.472468 0.110762 0.603864
128 1 0.355009 0.119067 0.68187
27 1 0.445465 0.0305711 0.743872
319 2 0.381611 0.0846328 0.51471
323 2 0.634479 0.0454253 0.849285
12 1 0.545025 0.147457 0.86717
284 1 0.417627 0.0967814 0.94039
302 2 0.615269 0.204092 0.954279
51 1 0.459583 0.183145 0.754249
346 2 0.346933 0.063717 0.845998
220 1 0.403029 0.457998 0.115193
144 1 0.418113 0.335256 0.210231
358 2 0.615513 0.306533 0.233403
257 1 0.555651 0.434887 0.142792
34 1 0.445859 0.360185 0.00252531
157 1 0.565957 0.301462 0.119805
113 1 0.594809 0.40554 0.00126512
53 1 0.406114 0.417628 0.34174
68 1 0.373935 0.358128 0.468489
263 1 0.593401 0.441577 0.283816
116 1 0.531732 0.411982 0.42148
183 1 0.525851 0.305175 0.311724
75 1 0.395402 0.260002 0.351618
312 2 0.536711 0.303729 0.470527
193 1 0.659945 0.440243 0.421484
317 2 0.486842 0.478638 0.252881
276 1 0.465659 0.447687 0.572106
166 1 0.334313 0.271955 0.684611
133 1 0.362646 0.416279 0.70627
266 1 0.594799 0.36031 0.594711
110 1 0.524552 0.311008 0.732469
26 1 0.439564 0.296724 0.585558
299 2 0.501298 0.422565 0.749503
148 1 0.604667 0.304429 0.859479
189 1 0.494943 0.400461 0.875542
303 2 0.400174 0.379244 0.812437
130 1 0.615902 0.454601 0.794241
18 1 0.415048 0.270029 0.867427
121 1 0.571081 0.573861 0.017815
17 1 0.509 0.582105 0.173872
339 2 0.632191 0.545344 0.249458
23 1 0.372031 0.60586 0.0736062
179 1 0.348797 0.731003 0.15613
348 2 0.608403 0.656713 0.110421
158 1 0.598772 0.673233 0.310169
229 1 0.554639 0.545541 0.383108
283 1 0.363192 0.532323 0.270213
70 1 0.426889 0.679076 0.357472
221 1 0.603224 0.649159 0.473208
173 1 0.412351 0.528546 0.431664
274 1 0.345513 0.688211 0.486363
143 1 0.666389 0.577183 0.711247
201 1 0.484095 0.672841 0.70099
134 1 0.475548 0.626167 0.523996
78 1 0.3735 0.575785 0.669344
74 1 0.533381 0.527385 0.678692
227 1 0.63597 0.683473 0.62223
14 1 0.664711 0.523251 0.566045
152 1 0.469175 0.673057 0.957277
4 1 0.571978 0.622811 0.82879
91 1 0.441388 0.5341 0.796461
331 2 0.469372 0.673908 0.834684
322 2 0.665759 0.699125 0.773171
65 1 0.594402 0.71587 0.991929
38 1 0.422363 0.524709 0.96164
342 2 0.339319 0.592702 0.783829
332 2 0.550794 0.501489 0.917007
219 1 0.586112 0.862729 0.0465721
107 1 0.481934 0.894569 0.169772
99 1 0.464319 0.953748 0.014856
320 2 0.591401 0.971421 0.113036
89 1 0.628279 0.773465 0.158514
132 1 0.490222 0.754476 0.227045
84 1 0.652569 0.930664 0.219872
224 1 0.336047 0.862811 0.205648
61 1 0.354763 0.868816 0.0521274
9 1 0.478418 0.756057 0.0879852
279 1 0.377572 0.941039 0.392876
297 2 0.588766 0.842193 0.259735
77 1 0.379669 0.807837 0.331709
146 1 0.464882 0.878836 0.495436
255 1 0.498805 0.897187 0.321638
93 1 0.531714 0.785507 0.403892
252 1 0.64381 0.905203 0.373528
304 2 0.613928 0.990084 0.486373
333 2 0.428358 0.767279 0.475654
246 1 0.381794 0.984924 0.577215
282 1 0.49077 0.925159 0.63386
228 1 0.377789 0.802738 0.618383
269 1 0.596625 0.792225 0.72707
117 1 0.532988 0.782358 0.587382
341 2 0.599002 0.865938 0.511218
275 1 0.647996 0.89848 0.635966
136 1 0.611455 0.941459 0.796214
185 1 0.510215 0.994078 0.874153
334 2 0.572586 0.884101 0.915939
138 1 0.428461 0.812932 0.935662
273 1 0.472027 0.886008 0.78998
6 1 0.36145 0.956537 0.882045
40 1 0.37478 0.753496 0.809415
223 1 0.545711 0.77362 0.862995
64 1 0.805375 0.188588 0.0693073
230 1 0.937113 0.143295 0.190714
192 1 0.733071 0.217324 0.203401
324 2 0.832074 0.0309073 0.167661
141 1 0.702934 0.0689532 0.17802
238 1 0.908421 0.0836839 0.0508967
32 1 0.998326 0.227378 0.0509697
325 2 0.739302 0.197133 0.357267
145 1 0.854188 0.0475913 0.4398
97 1 0.795235 0.0982183 0.294694
16 1 0.712255 0.0802525 0.437016
159 1 0.932191 0.179854 0.355097
350 2 0.936034 0.135866 0.478864
278 1 0.913252 0.0204896 0.287224
293 2 0.846399 0.217821 0.268315
209 1 0.801076 0.185961 0.7098
165 1 0.917157 0.0462238 0.727465
106 1 0.727302 0.0864858 0.635729
214 1 0.959652 0.184391 0.621483
66 1 0.904879 0.046305 0.581365
35 1 0.818375 0.169673 0.53472
19 1 0.849343 0.15483 0.929499
184 1 0.712228 0.0841009 0.946208
41 1 0.838396 0.0174864 0.900571
20 1 0.746629 0.0180824 0.790805
337 2 0.827425 0.103318 0.803283
163 1 0.675071 0.1669 0.806911
175 1 0.928984 0.179639 0.793188
43 1 0.687668 0.388882 0.185799
296 2 0.710716 0.293413 0.0791804
48 1 0.933508 0.46133 0.0190199
54 1 0.766034 0.414955 0.0498901
356 2 0.916854 0.417225 0.151394
190 1 0.863333 0.314658 0.135304
92 1 0.682535 0.305104 0.326725
153 1 0.701358 0.302644 0.496516
71 1 0.94515 0.304363 0.49011
343 2 0.956341 0.306736 0.340894
262 1 0.898462 0.487779 0.366084
330 2 0.781714 0.444339 0.398257
256 1 0.819699 0.278192 0.409561
169 1 0.825475 0.360024 0.285449
200 1 0.73946 0.481431 0.29029
199 1 0.985087 0.412552 0.254538
124 1 0.783479 0.300946 0.608736
206 1 0.98486 0.457439 0.543377
242 1 0.789494 0.463729 0.624348
268 1 0.975227 0.49763 0.713407
233 1 0.681059 0.322145 0.717603
83 1 0.863996 0.373215 0.708978
149 1 0.987355 0.330659 0.6469
76 1 0.826901 0.387695 0.502551
336 2 0.670609 0.429996 0.667399
80 1 0.887459 0.328808 0.982287
24 1 0.992868 0.329101 0.801153
127 1 0.809509 0.281378 0.806874
205 1 0.884751 0.433123 0.854046
244 1 0.732978 0.410908 0.898834
57 1 0.739408 0.25512 0.951238
123 1 0.828158 0.555649 0.0638199
272 1 0.722208 0.67642 0.0512449
195 1 0.706617 0.651574 0.211456
291 2 0.827028 0.646844 0.184635
211 1 0.943938 0.675363 0.135933
39 1 0.684257 0.52585 0.125531
218 1 0.876801 0.509618 0.219455
101 1 0.967367 0.61429 0.00120819
226 1 0.945428 0.68512 0.407531
254 1 0.844671 0.621644 0.318472
37 1 0.716324 0.609337 0.384438
207 1 0.803169 0.529492 0.475936
306 2 0.903867 0.587138 0.458434
245 1 0.994516 0.686261 0.552715
261 1 0.783762 0.613128 0.646507
88 1 0.962956 0.672976 0.715277
234 1 0.909853 0.574048 0.58376
50 1 0.824588 0.676194 0.510219
191 1 0.839367 0.581863 0.913335
235 1 0.809818 0.676051 0.781729
353 2 0.923336 0.6751 0.87509
265 1 0.860518 0.721684 0.98473
239 1 0.705511 0.671388 0.887571
73 1 0.698201 0.535221 0.979004
62 1 0.984576 0.564057 0.862714
329 2 0.896628 0.558148 0.780747
213 1 0.774721 0.509407 0.772304
318 2 0.731193 0.844111 0.158764
292 2 0.942139 0.829445 0.172237
352 2 0.881812 0.96001 0.0452985
111 1 0.952329 0.858832 0.0520674
198 1 0.750859 0.977973 0.0667199
250 1 0.816191 0.905529 0.201749
217 1 0.958881 0.987357 0.142004
281 1 0.722109 0.832286 0.0164764
247 1 0.832724 0.778566 0.109364
135 1 0.957274 0.890226 0.285129
151 1 0.981962 0.966543 0.421157
240 1 0.778944 0.951677 0.35514
100 1 0.850839 0.804828 0.400209
351 2 0.821148 0.907825 0.462995
203 1 0.726393 0.794365 0.278655
212 1 0.681228 0.770735 0.438346
236 1 0.880189 0.757514 0.258901
49 1 0.737107 0.791709 0.706494
241 1 0.976197 0.90753 0.693334
210 1 0.735798 0.971213 0.538565
170 1 0.868153 0.779959 0.644935
311 2 0.974646 0.785209 0.702411
162 1 0.816428 0.921053 0.667972
7 1 0.746784 0.823824 0.561722
182 1 0.906409 0.88939 0.557965
251 1 0.988856 0.968542 0.951654
174 1 0.890004 0.816247 0.79104
22 1 0.853395 0.872825 0.935892
122 1 0.688462 0.819254 0.868683
345 2 0.743828 0.893524 0.774537
102 1 0.672991 0.94965 0.930854
140 1 0.984711 0.775838 0.900571
298 2 0.903663 0.932436 0.832475
307 2 0.797616 0.760469 0.888404
