ITEM: TIMESTEP
0
ITEM: NUMBER OF ATOMS
4000
ITEM: BOX BOUNDS pp pp pp
0.0000000000000000e+00 1.6795961913825074e+01
0.0000000000000000e+00 1.6795961913825074e+01
0.0000000000000000e+00 1.6795961913825074e+01
ITEM: ATOMS id type xs ys zs
1 1 0 0 0
2 1 0.05 0.05 0
3 1 0.05 0 0.05
4 1 0 0.05 0.05
5 1 0.1 0 0
8 1 0.1 0.05 0.05
11 1 0 0.1 0
13 1 0.05 0.1 0.05
15 1 0.1 0.1 0
26 1 0 0 0.1
27 1 0.05 0.05 0.1
30 1 0.1 0 0.1
36 1 0 0.1 0.1
40 1 0.1 0.1 0.1
6 1 0.15 0.05 0
7 1 0.15 0 0.05
9 1 0.2 0 0
10 1 0.2 0.05 0.05
17 1 0.15 0.1 0.05
19 1 0.2 0.1 0
31 1 0.15 0.05 0.1
34 1 0.2 0 0.1
44 1 0.2 0.1 0.1
12 1 0.05 0.15 0
14 1 0 0.15 0.05
18 1 0.1 0.15 0.05
21 1 0 0.2 0
22 1 0.05 0.2 0.05
23 1 0.1 0.2 0
37 1 0.05 0.15 0.1
46 1 0 0.2 0.1
48 1 0.1 0.2 0.1
16 1 0.15 0.15 0
20 1 0.2 0.15 0.05
24 1 0.15 0.2 0.05
25 1 0.2 0.2 0
41 1 0.15 0.15 0.1
50 1 0.2 0.2 0.1
28 1 0.05 0 0.15
29 1 0 0.05 0.15
33 1 0.1 0.05 0.15
38 1 0.05 0.1 0.15
51 1 0 0 0.2
52 1 0.05 0.05 0.2
53 1 0.1 0 0.2
56 1 0 0.1 0.2
58 1 0.1 0.1 0.2
32 1 0.15 0 0.15
35 1 0.2 0.05 0.15
42 1 0.15 0.1 0.15
54 1 0.15 0.05 0.2
55 1 0.2 0 0.2
60 1 0.2 0.1 0.2
39 1 0 0.15 0.15
43 1 0.1 0.15 0.15
47 1 0.05 0.2 0.15
57 1 0.05 0.15 0.2
61 1 0 0.2 0.2
62 1 0.1 0.2 0.2
45 1 0.2 0.15 0.15
49 1 0.15 0.2 0.15
59 1 0.15 0.15 0.2
63 1 0.2 0.2 0.2
64 1 0.05 0 0.25
65 1 0 0.05 0.25
67 1 0.1 0.05 0.25
69 1 0.05 0.1 0.25
76 1 0 0 0.3
77 1 0.05 0.05 0.3
78 1 0.05 0 0.35
79 1 0 0.05 0.35
80 1 0.1 0 0.3
83 1 0.1 0.05 0.35
86 1 0 0.1 0.3
88 1 0.05 0.1 0.35
90 1 0.1 0.1 0.3
66 1 0.15 0 0.25
68 1 0.2 0.05 0.25
71 1 0.15 0.1 0.25
81 1 0.15 0.05 0.3
82 1 0.15 0 0.35
84 1 0.2 0 0.3
85 1 0.2 0.05 0.35
92 1 0.15 0.1 0.35
94 1 0.2 0.1 0.3
70 1 0 0.15 0.25
72 1 0.1 0.15 0.25
74 1 0.05 0.2 0.25
87 1 0.05 0.15 0.3
89 1 0 0.15 0.35
93 1 0.1 0.15 0.35
96 1 0 0.2 0.3
97 1 0.05 0.2 0.35
98 1 0.1 0.2 0.3
73 1 0.2 0.15 0.25
75 1 0.15 0.2 0.25
91 1 0.15 0.15 0.3
95 1 0.2 0.15 0.35
99 1 0.15 0.2 0.35
100 1 0.2 0.2 0.3
101 1 0 0 0.4
102 1 0.05 0.05 0.4
103 1 0.05 0 0.45
104 1 0 0.05 0.45
105 1 0.1 0 0.4
108 1 0.1 0.05 0.45
111 1 0 0.1 0.4
113 1 0.05 0.1 0.45
115 1 0.1 0.1 0.4
106 1 0.15 0.05 0.4
107 1 0.15 0 0.45
109 1 0.2 0 0.4
110 1 0.2 0.05 0.45
117 1 0.15 0.1 0.45
119 1 0.2 0.1 0.4
112 1 0.05 0.15 0.4
114 1 0 0.15 0.45
118 1 0.1 0.15 0.45
121 1 0 0.2 0.4
122 1 0.05 0.2 0.45
123 1 0.1 0.2 0.4
116 1 0.15 0.15 0.4
120 1 0.2 0.15 0.45
124 1 0.15 0.2 0.45
125 1 0.2 0.2 0.4
126 1 0 0 0.5
127 1 0.05 0.05 0.5
128 1 0.05 0 0.55
129 1 0 0.05 0.55
130 1 0.1 0 0.5
133 1 0.1 0.05 0.55
136 1 0 0.1 0.5
138 1 0.05 0.1 0.55
140 1 0.1 0.1 0.5
151 1 0 0 0.6
152 1 0.05 0.05 0.6
155 1 0.1 0 0.6
161 1 0 0.1 0.6
165 1 0.1 0.1 0.6
131 1 0.15 0.05 0.5
132 1 0.15 0 0.55
134 1 0.2 0 0.5
135 1 0.2 0.05 0.55
142 1 0.15 0.1 0.55
144 1 0.2 0.1 0.5
156 1 0.15 0.05 0.6
159 1 0.2 0 0.6
169 1 0.2 0.1 0.6
137 1 0.05 0.15 0.5
139 1 0 0.15 0.55
143 1 0.1 0.15 0.55
146 1 0 0.2 0.5
147 1 0.05 0.2 0.55
148 1 0.1 0.2 0.5
162 1 0.05 0.15 0.6
171 1 0 0.2 0.6
173 1 0.1 0.2 0.6
141 1 0.15 0.15 0.5
145 1 0.2 0.15 0.55
149 1 0.15 0.2 0.55
150 1 0.2 0.2 0.5
166 1 0.15 0.15 0.6
175 1 0.2 0.2 0.6
153 1 0.05 0 0.65
154 1 0 0.05 0.65
158 1 0.1 0.05 0.65
163 1 0.05 0.1 0.65
176 1 0 0 0.7
177 1 0.05 0.05 0.7
178 1 0.05 0 0.75
179 1 0 0.05 0.75
180 1 0.1 0 0.7
183 1 0.1 0.05 0.75
186 1 0 0.1 0.7
188 1 0.05 0.1 0.75
190 1 0.1 0.1 0.7
157 1 0.15 0 0.65
160 1 0.2 0.05 0.65
167 1 0.15 0.1 0.65
181 1 0.15 0.05 0.7
182 1 0.15 0 0.75
184 1 0.2 0 0.7
185 1 0.2 0.05 0.75
192 1 0.15 0.1 0.75
194 1 0.2 0.1 0.7
164 1 0 0.15 0.65
168 1 0.1 0.15 0.65
172 1 0.05 0.2 0.65
187 1 0.05 0.15 0.7
189 1 0 0.15 0.75
193 1 0.1 0.15 0.75
196 1 0 0.2 0.7
197 1 0.05 0.2 0.75
198 1 0.1 0.2 0.7
170 1 0.2 0.15 0.65
174 1 0.15 0.2 0.65
191 1 0.15 0.15 0.7
195 1 0.2 0.15 0.75
199 1 0.15 0.2 0.75
200 1 0.2 0.2 0.7
201 1 0 0 0.8
202 1 0.05 0.05 0.8
203 1 0.05 0 0.85
204 1 0 0.05 0.85
205 1 0.1 0 0.8
208 1 0.1 0.05 0.85
211 1 0 0.1 0.8
213 1 0.05 0.1 0.85
215 1 0.1 0.1 0.8
206 1 0.15 0.05 0.8
207 1 0.15 0 0.85
209 1 0.2 0 0.8
210 1 0.2 0.05 0.85
217 1 0.15 0.1 0.85
219 1 0.2 0.1 0.8
212 1 0.05 0.15 0.8
214 1 0 0.15 0.85
218 1 0.1 0.15 0.85
221 1 0 0.2 0.8
222 1 0.05 0.2 0.85
223 1 0.1 0.2 0.8
216 1 0.15 0.15 0.8
220 1 0.2 0.15 0.85
224 1 0.15 0.2 0.85
225 1 0.2 0.2 0.8
226 1 0 0 0.9
227 1 0.05 0.05 0.9
228 1 0.05 0 0.95
229 1 0 0.05 0.95
230 1 0.1 0 0.9
233 1 0.1 0.05 0.95
236 1 0 0.1 0.9
238 1 0.05 0.1 0.95
240 1 0.1 0.1 0.9
231 1 0.15 0.05 0.9
232 1 0.15 0 0.95
234 1 0.2 0 0.9
235 1 0.2 0.05 0.95
242 1 0.15 0.1 0.95
244 1 0.2 0.1 0.9
237 1 0.05 0.15 0.9
239 1 0 0.15 0.95
243 1 0.1 0.15 0.95
246 1 0 0.2 0.9
247 1 0.05 0.2 0.95
248 1 0.1 0.2 0.9
241 1 0.15 0.15 0.9
245 1 0.2 0.15 0.95
249 1 0.15 0.2 0.95
250 1 0.2 0.2 0.9
251 1 0.05 0.25 0
252 1 0 0.25 0.05
254 1 0.1 0.25 0.05
256 1 0 0.3 0
257 1 0.05 0.35 0
258 1 0.05 0.3 0.05
259 1 0 0.35 0.05
260 1 0.1 0.3 0
263 1 0.1 0.35 0.05
276 1 0.05 0.25 0.1
281 1 0 0.3 0.1
282 1 0.05 0.35 0.1
285 1 0.1 0.3 0.1
253 1 0.15 0.25 0
255 1 0.2 0.25 0.05
261 1 0.15 0.35 0
262 1 0.15 0.3 0.05
264 1 0.2 0.3 0
265 1 0.2 0.35 0.05
278 1 0.15 0.25 0.1
286 1 0.15 0.35 0.1
289 1 0.2 0.3 0.1
266 1 0 0.4 0
267 1 0.05 0.45 0
268 1 0.05 0.4 0.05
269 1 0 0.45 0.05
270 1 0.1 0.4 0
273 1 0.1 0.45 0.05
291 1 0 0.4 0.1
292 1 0.05 0.45 0.1
295 1 0.1 0.4 0.1
271 1 0.15 0.45 0
272 1 0.15 0.4 0.05
274 1 0.2 0.4 0
275 1 0.2 0.45 0.05
296 1 0.15 0.45 0.1
299 1 0.2 0.4 0.1
277 1 0 0.25 0.15
279 1 0.1 0.25 0.15
283 1 0.05 0.3 0.15
284 1 0 0.35 0.15
288 1 0.1 0.35 0.15
301 1 0.05 0.25 0.2
303 1 0 0.3 0.2
304 1 0.05 0.35 0.2
305 1 0.1 0.3 0.2
280 1 0.2 0.25 0.15
287 1 0.15 0.3 0.15
290 1 0.2 0.35 0.15
302 1 0.15 0.25 0.2
306 1 0.15 0.35 0.2
307 1 0.2 0.3 0.2
293 1 0.05 0.4 0.15
294 1 0 0.45 0.15
298 1 0.1 0.45 0.15
308 1 0 0.4 0.2
309 1 0.05 0.45 0.2
310 1 0.1 0.4 0.2
297 1 0.15 0.4 0.15
300 1 0.2 0.45 0.15
311 1 0.15 0.45 0.2
312 1 0.2 0.4 0.2
313 1 0 0.25 0.25
314 1 0.1 0.25 0.25
316 1 0.05 0.3 0.25
317 1 0 0.35 0.25
319 1 0.1 0.35 0.25
326 1 0.05 0.25 0.3
327 1 0 0.25 0.35
329 1 0.1 0.25 0.35
331 1 0 0.3 0.3
332 1 0.05 0.35 0.3
333 1 0.05 0.3 0.35
334 1 0 0.35 0.35
335 1 0.1 0.3 0.3
338 1 0.1 0.35 0.35
315 1 0.2 0.25 0.25
318 1 0.15 0.3 0.25
320 1 0.2 0.35 0.25
328 1 0.15 0.25 0.3
330 1 0.2 0.25 0.35
336 1 0.15 0.35 0.3
337 1 0.15 0.3 0.35
339 1 0.2 0.3 0.3
340 1 0.2 0.35 0.35
321 1 0.05 0.4 0.25
322 1 0 0.45 0.25
324 1 0.1 0.45 0.25
341 1 0 0.4 0.3
342 1 0.05 0.45 0.3
343 1 0.05 0.4 0.35
344 1 0 0.45 0.35
345 1 0.1 0.4 0.3
348 1 0.1 0.45 0.35
323 1 0.15 0.4 0.25
325 1 0.2 0.45 0.25
346 1 0.15 0.45 0.3
347 1 0.15 0.4 0.35
349 1 0.2 0.4 0.3
350 1 0.2 0.45 0.35
351 1 0.05 0.25 0.4
352 1 0 0.25 0.45
354 1 0.1 0.25 0.45
356 1 0 0.3 0.4
357 1 0.05 0.35 0.4
358 1 0.05 0.3 0.45
359 1 0 0.35 0.45
360 1 0.1 0.3 0.4
363 1 0.1 0.35 0.45
353 1 0.15 0.25 0.4
355 1 0.2 0.25 0.45
361 1 0.15 0.35 0.4
362 1 0.15 0.3 0.45
364 1 0.2 0.3 0.4
365 1 0.2 0.35 0.45
366 1 0 0.4 0.4
367 1 0.05 0.45 0.4
368 1 0.05 0.4 0.45
369 1 0 0.45 0.45
370 1 0.1 0.4 0.4
373 1 0.1 0.45 0.45
371 1 0.15 0.45 0.4
372 1 0.15 0.4 0.45
374 1 0.2 0.4 0.4
375 1 0.2 0.45 0.45
376 1 0.05 0.25 0.5
377 1 0 0.25 0.55
379 1 0.1 0.25 0.55
381 1 0 0.3 0.5
382 1 0.05 0.35 0.5
383 1 0.05 0.3 0.55
384 1 0 0.35 0.55
385 1 0.1 0.3 0.5
388 1 0.1 0.35 0.55
401 1 0.05 0.25 0.6
406 1 0 0.3 0.6
407 1 0.05 0.35 0.6
410 1 0.1 0.3 0.6
378 1 0.15 0.25 0.5
380 1 0.2 0.25 0.55
386 1 0.15 0.35 0.5
387 1 0.15 0.3 0.55
389 1 0.2 0.3 0.5
390 1 0.2 0.35 0.55
403 1 0.15 0.25 0.6
411 1 0.15 0.35 0.6
414 1 0.2 0.3 0.6
391 1 0 0.4 0.5
392 1 0.05 0.45 0.5
393 1 0.05 0.4 0.55
394 1 0 0.45 0.55
395 1 0.1 0.4 0.5
398 1 0.1 0.45 0.55
416 1 0 0.4 0.6
417 1 0.05 0.45 0.6
420 1 0.1 0.4 0.6
396 1 0.15 0.45 0.5
397 1 0.15 0.4 0.55
399 1 0.2 0.4 0.5
400 1 0.2 0.45 0.55
421 1 0.15 0.45 0.6
424 1 0.2 0.4 0.6
402 1 0 0.25 0.65
404 1 0.1 0.25 0.65
408 1 0.05 0.3 0.65
409 1 0 0.35 0.65
413 1 0.1 0.35 0.65
426 1 0.05 0.25 0.7
427 1 0 0.25 0.75
429 1 0.1 0.25 0.75
431 1 0 0.3 0.7
432 1 0.05 0.35 0.7
433 1 0.05 0.3 0.75
434 1 0 0.35 0.75
435 1 0.1 0.3 0.7
438 1 0.1 0.35 0.75
405 1 0.2 0.25 0.65
412 1 0.15 0.3 0.65
415 1 0.2 0.35 0.65
428 1 0.15 0.25 0.7
430 1 0.2 0.25 0.75
436 1 0.15 0.35 0.7
437 1 0.15 0.3 0.75
439 1 0.2 0.3 0.7
440 1 0.2 0.35 0.75
418 1 0.05 0.4 0.65
419 1 0 0.45 0.65
423 1 0.1 0.45 0.65
441 1 0 0.4 0.7
442 1 0.05 0.45 0.7
443 1 0.05 0.4 0.75
444 1 0 0.45 0.75
445 1 0.1 0.4 0.7
448 1 0.1 0.45 0.75
422 1 0.15 0.4 0.65
425 1 0.2 0.45 0.65
446 1 0.15 0.45 0.7
447 1 0.15 0.4 0.75
449 1 0.2 0.4 0.7
450 1 0.2 0.45 0.75
451 1 0.05 0.25 0.8
452 1 0 0.25 0.85
454 1 0.1 0.25 0.85
456 1 0 0.3 0.8
457 1 0.05 0.35 0.8
458 1 0.05 0.3 0.85
459 1 0 0.35 0.85
460 1 0.1 0.3 0.8
463 1 0.1 0.35 0.85
453 1 0.15 0.25 0.8
455 1 0.2 0.25 0.85
461 1 0.15 0.35 0.8
462 1 0.15 0.3 0.85
464 1 0.2 0.3 0.8
465 1 0.2 0.35 0.85
466 1 0 0.4 0.8
467 1 0.05 0.45 0.8
468 1 0.05 0.4 0.85
469 1 0 0.45 0.85
470 1 0.1 0.4 0.8
473 1 0.1 0.45 0.85
471 1 0.15 0.45 0.8
472 1 0.15 0.4 0.85
474 1 0.2 0.4 0.8
475 1 0.2 0.45 0.85
476 1 0.05 0.25 0.9
477 1 0 0.25 0.95
479 1 0.1 0.25 0.95
481 1 0 0.3 0.9
482 1 0.05 0.35 0.9
483 1 0.05 0.3 0.95
484 1 0 0.35 0.95
485 1 0.1 0.3 0.9
488 1 0.1 0.35 0.95
478 1 0.15 0.25 0.9
480 1 0.2 0.25 0.95
486 1 0.15 0.35 0.9
487 1 0.15 0.3 0.95
489 1 0.2 0.3 0.9
490 1 0.2 0.35 0.95
491 1 0 0.4 0.9
492 1 0.05 0.45 0.9
493 1 0.05 0.4 0.95
494 1 0 0.45 0.95
495 1 0.1 0.4 0.9
498 1 0.1 0.45 0.95
496 1 0.15 0.45 0.9
497 1 0.15 0.4 0.95
499 1 0.2 0.4 0.9
500 1 0.2 0.45 0.95
501 1 0 0.5 0
502 1 0.05 0.55 0
503 1 0.05 0.5 0.05
504 1 0 0.55 0.05
505 1 0.1 0.5 0
508 1 0.1 0.55 0.05
511 1 0 0.6 0
513 1 0.05 0.6 0.05
515 1 0.1 0.6 0
531 1 0 0.5 0.1
532 1 0.05 0.55 0.1
535 1 0.1 0.5 0.1
541 1 0 0.6 0.1
545 1 0.1 0.6 0.1
506 1 0.15 0.55 0
507 1 0.15 0.5 0.05
509 1 0.2 0.5 0
510 1 0.2 0.55 0.05
517 1 0.15 0.6 0.05
519 1 0.2 0.6 0
536 1 0.15 0.55 0.1
539 1 0.2 0.5 0.1
549 1 0.2 0.6 0.1
512 1 0.05 0.65 0
514 1 0 0.65 0.05
518 1 0.1 0.65 0.05
521 1 0 0.7 0
522 1 0.05 0.75 0
523 1 0.05 0.7 0.05
524 1 0 0.75 0.05
525 1 0.1 0.7 0
528 1 0.1 0.75 0.05
542 1 0.05 0.65 0.1
551 1 0 0.7 0.1
552 1 0.05 0.75 0.1
555 1 0.1 0.7 0.1
516 1 0.15 0.65 0
520 1 0.2 0.65 0.05
526 1 0.15 0.75 0
527 1 0.15 0.7 0.05
529 1 0.2 0.7 0
530 1 0.2 0.75 0.05
546 1 0.15 0.65 0.1
556 1 0.15 0.75 0.1
559 1 0.2 0.7 0.1
533 1 0.05 0.5 0.15
534 1 0 0.55 0.15
538 1 0.1 0.55 0.15
543 1 0.05 0.6 0.15
561 1 0 0.5 0.2
562 1 0.05 0.55 0.2
563 1 0.1 0.5 0.2
566 1 0 0.6 0.2
568 1 0.1 0.6 0.2
537 1 0.15 0.5 0.15
540 1 0.2 0.55 0.15
547 1 0.15 0.6 0.15
564 1 0.15 0.55 0.2
565 1 0.2 0.5 0.2
570 1 0.2 0.6 0.2
544 1 0 0.65 0.15
548 1 0.1 0.65 0.15
553 1 0.05 0.7 0.15
554 1 0 0.75 0.15
558 1 0.1 0.75 0.15
567 1 0.05 0.65 0.2
571 1 0 0.7 0.2
572 1 0.05 0.75 0.2
573 1 0.1 0.7 0.2
550 1 0.2 0.65 0.15
557 1 0.15 0.7 0.15
560 1 0.2 0.75 0.15
569 1 0.15 0.65 0.2
574 1 0.15 0.75 0.2
575 1 0.2 0.7 0.2
576 1 0.05 0.5 0.25
577 1 0 0.55 0.25
579 1 0.1 0.55 0.25
581 1 0.05 0.6 0.25
591 1 0 0.5 0.3
592 1 0.05 0.55 0.3
593 1 0.05 0.5 0.35
594 1 0 0.55 0.35
595 1 0.1 0.5 0.3
598 1 0.1 0.55 0.35
601 1 0 0.6 0.3
603 1 0.05 0.6 0.35
605 1 0.1 0.6 0.3
578 1 0.15 0.5 0.25
580 1 0.2 0.55 0.25
583 1 0.15 0.6 0.25
596 1 0.15 0.55 0.3
597 1 0.15 0.5 0.35
599 1 0.2 0.5 0.3
600 1 0.2 0.55 0.35
607 1 0.15 0.6 0.35
609 1 0.2 0.6 0.3
582 1 0 0.65 0.25
584 1 0.1 0.65 0.25
586 1 0.05 0.7 0.25
587 1 0 0.75 0.25
589 1 0.1 0.75 0.25
602 1 0.05 0.65 0.3
604 1 0 0.65 0.35
608 1 0.1 0.65 0.35
611 1 0 0.7 0.3
612 1 0.05 0.75 0.3
613 1 0.05 0.7 0.35
614 1 0 0.75 0.35
615 1 0.1 0.7 0.3
618 1 0.1 0.75 0.35
585 1 0.2 0.65 0.25
588 1 0.15 0.7 0.25
590 1 0.2 0.75 0.25
606 1 0.15 0.65 0.3
610 1 0.2 0.65 0.35
616 1 0.15 0.75 0.3
617 1 0.15 0.7 0.35
619 1 0.2 0.7 0.3
620 1 0.2 0.75 0.35
621 1 0 0.5 0.4
622 1 0.05 0.55 0.4
623 1 0.05 0.5 0.45
624 1 0 0.55 0.45
625 1 0.1 0.5 0.4
628 1 0.1 0.55 0.45
631 1 0 0.6 0.4
633 1 0.05 0.6 0.45
635 1 0.1 0.6 0.4
626 1 0.15 0.55 0.4
627 1 0.15 0.5 0.45
629 1 0.2 0.5 0.4
630 1 0.2 0.55 0.45
637 1 0.15 0.6 0.45
639 1 0.2 0.6 0.4
632 1 0.05 0.65 0.4
634 1 0 0.65 0.45
638 1 0.1 0.65 0.45
641 1 0 0.7 0.4
642 1 0.05 0.75 0.4
643 1 0.05 0.7 0.45
644 1 0 0.75 0.45
645 1 0.1 0.7 0.4
648 1 0.1 0.75 0.45
636 1 0.15 0.65 0.4
640 1 0.2 0.65 0.45
646 1 0.15 0.75 0.4
647 1 0.15 0.7 0.45
649 1 0.2 0.7 0.4
650 1 0.2 0.75 0.45
651 1 0 0.5 0.5
652 1 0.05 0.55 0.5
653 1 0.05 0.5 0.55
654 1 0 0.55 0.55
655 1 0.1 0.5 0.5
658 1 0.1 0.55 0.55
661 1 0 0.6 0.5
663 1 0.05 0.6 0.55
665 1 0.1 0.6 0.5
681 1 0 0.5 0.6
682 1 0.05 0.55 0.6
685 1 0.1 0.5 0.6
691 1 0 0.6 0.6
695 1 0.1 0.6 0.6
656 1 0.15 0.55 0.5
657 1 0.15 0.5 0.55
659 1 0.2 0.5 0.5
660 1 0.2 0.55 0.55
667 1 0.15 0.6 0.55
669 1 0.2 0.6 0.5
686 1 0.15 0.55 0.6
689 1 0.2 0.5 0.6
699 1 0.2 0.6 0.6
662 1 0.05 0.65 0.5
664 1 0 0.65 0.55
668 1 0.1 0.65 0.55
671 1 0 0.7 0.5
672 1 0.05 0.75 0.5
673 1 0.05 0.7 0.55
674 1 0 0.75 0.55
675 1 0.1 0.7 0.5
678 1 0.1 0.75 0.55
692 1 0.05 0.65 0.6
701 1 0 0.7 0.6
702 1 0.05 0.75 0.6
705 1 0.1 0.7 0.6
666 1 0.15 0.65 0.5
670 1 0.2 0.65 0.55
676 1 0.15 0.75 0.5
677 1 0.15 0.7 0.55
679 1 0.2 0.7 0.5
680 1 0.2 0.75 0.55
696 1 0.15 0.65 0.6
706 1 0.15 0.75 0.6
709 1 0.2 0.7 0.6
683 1 0.05 0.5 0.65
684 1 0 0.55 0.65
688 1 0.1 0.55 0.65
693 1 0.05 0.6 0.65
711 1 0 0.5 0.7
712 1 0.05 0.55 0.7
713 1 0.05 0.5 0.75
714 1 0 0.55 0.75
715 1 0.1 0.5 0.7
718 1 0.1 0.55 0.75
721 1 0 0.6 0.7
723 1 0.05 0.6 0.75
725 1 0.1 0.6 0.7
687 1 0.15 0.5 0.65
690 1 0.2 0.55 0.65
697 1 0.15 0.6 0.65
716 1 0.15 0.55 0.7
717 1 0.15 0.5 0.75
719 1 0.2 0.5 0.7
720 1 0.2 0.55 0.75
727 1 0.15 0.6 0.75
729 1 0.2 0.6 0.7
694 1 0 0.65 0.65
698 1 0.1 0.65 0.65
703 1 0.05 0.7 0.65
704 1 0 0.75 0.65
708 1 0.1 0.75 0.65
722 1 0.05 0.65 0.7
724 1 0 0.65 0.75
728 1 0.1 0.65 0.75
731 1 0 0.7 0.7
732 1 0.05 0.75 0.7
733 1 0.05 0.7 0.75
734 1 0 0.75 0.75
735 1 0.1 0.7 0.7
738 1 0.1 0.75 0.75
700 1 0.2 0.65 0.65
707 1 0.15 0.7 0.65
710 1 0.2 0.75 0.65
726 1 0.15 0.65 0.7
730 1 0.2 0.65 0.75
736 1 0.15 0.75 0.7
737 1 0.15 0.7 0.75
739 1 0.2 0.7 0.7
740 1 0.2 0.75 0.75
741 1 0 0.5 0.8
742 1 0.05 0.55 0.8
743 1 0.05 0.5 0.85
744 1 0 0.55 0.85
745 1 0.1 0.5 0.8
748 1 0.1 0.55 0.85
751 1 0 0.6 0.8
753 1 0.05 0.6 0.85
755 1 0.1 0.6 0.8
746 1 0.15 0.55 0.8
747 1 0.15 0.5 0.85
749 1 0.2 0.5 0.8
750 1 0.2 0.55 0.85
757 1 0.15 0.6 0.85
759 1 0.2 0.6 0.8
752 1 0.05 0.65 0.8
754 1 0 0.65 0.85
758 1 0.1 0.65 0.85
761 1 0 0.7 0.8
762 1 0.05 0.75 0.8
763 1 0.05 0.7 0.85
764 1 0 0.75 0.85
765 1 0.1 0.7 0.8
768 1 0.1 0.75 0.85
756 1 0.15 0.65 0.8
760 1 0.2 0.65 0.85
766 1 0.15 0.75 0.8
767 1 0.15 0.7 0.85
769 1 0.2 0.7 0.8
770 1 0.2 0.75 0.85
771 1 0 0.5 0.9
772 1 0.05 0.55 0.9
773 1 0.05 0.5 0.95
774 1 0 0.55 0.95
775 1 0.1 0.5 0.9
778 1 0.1 0.55 0.95
781 1 0 0.6 0.9
783 1 0.05 0.6 0.95
785 1 0.1 0.6 0.9
776 1 0.15 0.55 0.9
777 1 0.15 0.5 0.95
779 1 0.2 0.5 0.9
780 1 0.2 0.55 0.95
787 1 0.15 0.6 0.95
789 1 0.2 0.6 0.9
782 1 0.05 0.65 0.9
784 1 0 0.65 0.95
788 1 0.1 0.65 0.95
791 1 0 0.7 0.9
792 1 0.05 0.75 0.9
793 1 0.05 0.7 0.95
794 1 0 0.75 0.95
795 1 0.1 0.7 0.9
798 1 0.1 0.75 0.95
786 1 0.15 0.65 0.9
790 1 0.2 0.65 0.95
796 1 0.15 0.75 0.9
797 1 0.15 0.7 0.95
799 1 0.2 0.7 0.9
800 1 0.2 0.75 0.95
801 1 0 0.8 0
802 1 0.05 0.85 0
803 1 0.05 0.8 0.05
804 1 0 0.85 0.05
805 1 0.1 0.8 0
808 1 0.1 0.85 0.05
821 1 0 0.8 0.1
822 1 0.05 0.85 0.1
825 1 0.1 0.8 0.1
806 1 0.15 0.85 0
807 1 0.15 0.8 0.05
809 1 0.2 0.8 0
810 1 0.2 0.85 0.05
826 1 0.15 0.85 0.1
829 1 0.2 0.8 0.1
811 1 0 0.9 0
812 1 0.05 0.95 0
813 1 0.05 0.9 0.05
814 1 0 0.95 0.05
815 1 0.1 0.9 0
818 1 0.1 0.95 0.05
831 1 0 0.9 0.1
832 1 0.05 0.95 0.1
835 1 0.1 0.9 0.1
816 1 0.15 0.95 0
817 1 0.15 0.9 0.05
819 1 0.2 0.9 0
820 1 0.2 0.95 0.05
836 1 0.15 0.95 0.1
839 1 0.2 0.9 0.1
823 1 0.05 0.8 0.15
824 1 0 0.85 0.15
828 1 0.1 0.85 0.15
841 1 0 0.8 0.2
842 1 0.05 0.85 0.2
843 1 0.1 0.8 0.2
827 1 0.15 0.8 0.15
830 1 0.2 0.85 0.15
844 1 0.15 0.85 0.2
845 1 0.2 0.8 0.2
833 1 0.05 0.9 0.15
834 1 0 0.95 0.15
838 1 0.1 0.95 0.15
846 1 0 0.9 0.2
847 1 0.05 0.95 0.2
848 1 0.1 0.9 0.2
837 1 0.15 0.9 0.15
840 1 0.2 0.95 0.15
849 1 0.15 0.95 0.2
850 1 0.2 0.9 0.2
851 1 0.05 0.8 0.25
852 1 0 0.85 0.25
854 1 0.1 0.85 0.25
861 1 0 0.8 0.3
862 1 0.05 0.85 0.3
863 1 0.05 0.8 0.35
864 1 0 0.85 0.35
865 1 0.1 0.8 0.3
868 1 0.1 0.85 0.35
853 1 0.15 0.8 0.25
855 1 0.2 0.85 0.25
866 1 0.15 0.85 0.3
867 1 0.15 0.8 0.35
869 1 0.2 0.8 0.3
870 1 0.2 0.85 0.35
856 1 0.05 0.9 0.25
857 1 0 0.95 0.25
859 1 0.1 0.95 0.25
871 1 0 0.9 0.3
872 1 0.05 0.95 0.3
873 1 0.05 0.9 0.35
874 1 0 0.95 0.35
875 1 0.1 0.9 0.3
878 1 0.1 0.95 0.35
858 1 0.15 0.9 0.25
860 1 0.2 0.95 0.25
876 1 0.15 0.95 0.3
877 1 0.15 0.9 0.35
879 1 0.2 0.9 0.3
880 1 0.2 0.95 0.35
881 1 0 0.8 0.4
882 1 0.05 0.85 0.4
883 1 0.05 0.8 0.45
884 1 0 0.85 0.45
885 1 0.1 0.8 0.4
888 1 0.1 0.85 0.45
886 1 0.15 0.85 0.4
887 1 0.15 0.8 0.45
889 1 0.2 0.8 0.4
890 1 0.2 0.85 0.45
891 1 0 0.9 0.4
892 1 0.05 0.95 0.4
893 1 0.05 0.9 0.45
894 1 0 0.95 0.45
895 1 0.1 0.9 0.4
898 1 0.1 0.95 0.45
896 1 0.15 0.95 0.4
897 1 0.15 0.9 0.45
899 1 0.2 0.9 0.4
900 1 0.2 0.95 0.45
901 1 0 0.8 0.5
902 1 0.05 0.85 0.5
903 1 0.05 0.8 0.55
904 1 0 0.85 0.55
905 1 0.1 0.8 0.5
908 1 0.1 0.85 0.55
921 1 0 0.8 0.6
922 1 0.05 0.85 0.6
925 1 0.1 0.8 0.6
906 1 0.15 0.85 0.5
907 1 0.15 0.8 0.55
909 1 0.2 0.8 0.5
910 1 0.2 0.85 0.55
926 1 0.15 0.85 0.6
929 1 0.2 0.8 0.6
911 1 0 0.9 0.5
912 1 0.05 0.95 0.5
913 1 0.05 0.9 0.55
914 1 0 0.95 0.55
915 1 0.1 0.9 0.5
918 1 0.1 0.95 0.55
931 1 0 0.9 0.6
932 1 0.05 0.95 0.6
935 1 0.1 0.9 0.6
916 1 0.15 0.95 0.5
917 1 0.15 0.9 0.55
919 1 0.2 0.9 0.5
920 1 0.2 0.95 0.55
936 1 0.15 0.95 0.6
939 1 0.2 0.9 0.6
923 1 0.05 0.8 0.65
924 1 0 0.85 0.65
928 1 0.1 0.85 0.65
941 1 0 0.8 0.7
942 1 0.05 0.85 0.7
943 1 0.05 0.8 0.75
944 1 0 0.85 0.75
945 1 0.1 0.8 0.7
948 1 0.1 0.85 0.75
927 1 0.15 0.8 0.65
930 1 0.2 0.85 0.65
946 1 0.15 0.85 0.7
947 1 0.15 0.8 0.75
949 1 0.2 0.8 0.7
950 1 0.2 0.85 0.75
933 1 0.05 0.9 0.65
934 1 0 0.95 0.65
938 1 0.1 0.95 0.65
951 1 0 0.9 0.7
952 1 0.05 0.95 0.7
953 1 0.05 0.9 0.75
954 1 0 0.95 0.75
955 1 0.1 0.9 0.7
958 1 0.1 0.95 0.75
937 1 0.15 0.9 0.65
940 1 0.2 0.95 0.65
956 1 0.15 0.95 0.7
957 1 0.15 0.9 0.75
959 1 0.2 0.9 0.7
960 1 0.2 0.95 0.75
961 1 0 0.8 0.8
962 1 0.05 0.85 0.8
963 1 0.05 0.8 0.85
964 1 0 0.85 0.85
965 1 0.1 0.8 0.8
968 1 0.1 0.85 0.85
966 1 0.15 0.85 0.8
967 1 0.15 0.8 0.85
969 1 0.2 0.8 0.8
970 1 0.2 0.85 0.85
971 1 0 0.9 0.8
972 1 0.05 0.95 0.8
973 1 0.05 0.9 0.85
974 1 0 0.95 0.85
975 1 0.1 0.9 0.8
978 1 0.1 0.95 0.85
976 1 0.15 0.95 0.8
977 1 0.15 0.9 0.85
979 1 0.2 0.9 0.8
980 1 0.2 0.95 0.85
981 1 0 0.8 0.9
982 1 0.05 0.85 0.9
983 1 0.05 0.8 0.95
984 1 0 0.85 0.95
985 1 0.1 0.8 0.9
988 1 0.1 0.85 0.95
986 1 0.15 0.85 0.9
987 1 0.15 0.8 0.95
989 1 0.2 0.8 0.9
990 1 0.2 0.85 0.95
991 1 0 0.9 0.9
992 1 0.05 0.95 0.9
993 1 0.05 0.9 0.95
994 1 0 0.95 0.95
995 1 0.1 0.9 0.9
998 1 0.1 0.95 0.95
996 1 0.15 0.95 0.9
997 1 0.15 0.9 0.95
999 1 0.2 0.9 0.9
1000 1 0.2 0.95 0.95
1001 1 0.25 0.05 0
1002 1 0.25 0 0.05
1003 1 0.3 0 0
1004 1 0.35 0.05 0
1005 1 0.35 0 0.05
1006 1 0.3 0.05 0.05
1012 1 0.25 0.1 0.05
1013 1 0.3 0.1 0
1015 1 0.35 0.1 0.05
1026 1 0.25 0.05 0.1
1028 1 0.3 0 0.1
1029 1 0.35 0.05 0.1
1038 1 0.3 0.1 0.1
1007 1 0.4 0 0
1008 1 0.45 0.05 0
1009 1 0.45 0 0.05
1010 1 0.4 0.05 0.05
1017 1 0.4 0.1 0
1019 1 0.45 0.1 0.05
1032 1 0.4 0 0.1
1033 1 0.45 0.05 0.1
1042 1 0.4 0.1 0.1
1011 1 0.25 0.15 0
1014 1 0.35 0.15 0
1016 1 0.3 0.15 0.05
1021 1 0.25 0.2 0.05
1022 1 0.3 0.2 0
1023 1 0.35 0.2 0.05
1036 1 0.25 0.15 0.1
1039 1 0.35 0.15 0.1
1047 1 0.3 0.2 0.1
1018 1 0.45 0.15 0
1020 1 0.4 0.15 0.05
1024 1 0.4 0.2 0
1025 1 0.45 0.2 0.05
1043 1 0.45 0.15 0.1
1049 1 0.4 0.2 0.1
1027 1 0.25 0 0.15
1030 1 0.35 0 0.15
1031 1 0.3 0.05 0.15
1037 1 0.25 0.1 0.15
1040 1 0.35 0.1 0.15
1051 1 0.25 0.05 0.2
1052 1 0.3 0 0.2
1053 1 0.35 0.05 0.2
1057 1 0.3 0.1 0.2
1034 1 0.45 0 0.15
1035 1 0.4 0.05 0.15
1044 1 0.45 0.1 0.15
1054 1 0.4 0 0.2
1055 1 0.45 0.05 0.2
1059 1 0.4 0.1 0.2
1041 1 0.3 0.15 0.15
1046 1 0.25 0.2 0.15
1048 1 0.35 0.2 0.15
1056 1 0.25 0.15 0.2
1058 1 0.35 0.15 0.2
1061 1 0.3 0.2 0.2
1045 1 0.4 0.15 0.15
1050 1 0.45 0.2 0.15
1060 1 0.45 0.15 0.2
1062 1 0.4 0.2 0.2
1063 1 0.25 0 0.25
1064 1 0.35 0 0.25
1065 1 0.3 0.05 0.25
1068 1 0.25 0.1 0.25
1069 1 0.35 0.1 0.25
1076 1 0.25 0.05 0.3
1077 1 0.25 0 0.35
1078 1 0.3 0 0.3
1079 1 0.35 0.05 0.3
1080 1 0.35 0 0.35
1081 1 0.3 0.05 0.35
1087 1 0.25 0.1 0.35
1088 1 0.3 0.1 0.3
1090 1 0.35 0.1 0.35
1066 1 0.45 0 0.25
1067 1 0.4 0.05 0.25
1071 1 0.45 0.1 0.25
1082 1 0.4 0 0.3
1083 1 0.45 0.05 0.3
1084 1 0.45 0 0.35
1085 1 0.4 0.05 0.35
1092 1 0.4 0.1 0.3
1094 1 0.45 0.1 0.35
1070 1 0.3 0.15 0.25
1073 1 0.25 0.2 0.25
1074 1 0.35 0.2 0.25
1086 1 0.25 0.15 0.3
1089 1 0.35 0.15 0.3
1091 1 0.3 0.15 0.35
1096 1 0.25 0.2 0.35
1097 1 0.3 0.2 0.3
1098 1 0.35 0.2 0.35
1072 1 0.4 0.15 0.25
1075 1 0.45 0.2 0.25
1093 1 0.45 0.15 0.3
1095 1 0.4 0.15 0.35
1099 1 0.4 0.2 0.3
1100 1 0.45 0.2 0.35
1101 1 0.25 0.05 0.4
1102 1 0.25 0 0.45
1103 1 0.3 0 0.4
1104 1 0.35 0.05 0.4
1105 1 0.35 0 0.45
1106 1 0.3 0.05 0.45
1112 1 0.25 0.1 0.45
1113 1 0.3 0.1 0.4
1115 1 0.35 0.1 0.45
1107 1 0.4 0 0.4
1108 1 0.45 0.05 0.4
1109 1 0.45 0 0.45
1110 1 0.4 0.05 0.45
1117 1 0.4 0.1 0.4
1119 1 0.45 0.1 0.45
1111 1 0.25 0.15 0.4
1114 1 0.35 0.15 0.4
1116 1 0.3 0.15 0.45
1121 1 0.25 0.2 0.45
1122 1 0.3 0.2 0.4
1123 1 0.35 0.2 0.45
1118 1 0.45 0.15 0.4
1120 1 0.4 0.15 0.45
1124 1 0.4 0.2 0.4
1125 1 0.45 0.2 0.45
1126 1 0.25 0.05 0.5
1127 1 0.25 0 0.55
1128 1 0.3 0 0.5
1129 1 0.35 0.05 0.5
1130 1 0.35 0 0.55
1131 1 0.3 0.05 0.55
1137 1 0.25 0.1 0.55
1138 1 0.3 0.1 0.5
1140 1 0.35 0.1 0.55
1151 1 0.25 0.05 0.6
1153 1 0.3 0 0.6
1154 1 0.35 0.05 0.6
1163 1 0.3 0.1 0.6
1132 1 0.4 0 0.5
1133 1 0.45 0.05 0.5
1134 1 0.45 0 0.55
1135 1 0.4 0.05 0.55
1142 1 0.4 0.1 0.5
1144 1 0.45 0.1 0.55
1157 1 0.4 0 0.6
1158 1 0.45 0.05 0.6
1167 1 0.4 0.1 0.6
1136 1 0.25 0.15 0.5
1139 1 0.35 0.15 0.5
1141 1 0.3 0.15 0.55
1146 1 0.25 0.2 0.55
1147 1 0.3 0.2 0.5
1148 1 0.35 0.2 0.55
1161 1 0.25 0.15 0.6
1164 1 0.35 0.15 0.6
1172 1 0.3 0.2 0.6
1143 1 0.45 0.15 0.5
1145 1 0.4 0.15 0.55
1149 1 0.4 0.2 0.5
1150 1 0.45 0.2 0.55
1168 1 0.45 0.15 0.6
1174 1 0.4 0.2 0.6
1152 1 0.25 0 0.65
1155 1 0.35 0 0.65
1156 1 0.3 0.05 0.65
1162 1 0.25 0.1 0.65
1165 1 0.35 0.1 0.65
1176 1 0.25 0.05 0.7
1177 1 0.25 0 0.75
1178 1 0.3 0 0.7
1179 1 0.35 0.05 0.7
1180 1 0.35 0 0.75
1181 1 0.3 0.05 0.75
1187 1 0.25 0.1 0.75
1188 1 0.3 0.1 0.7
1190 1 0.35 0.1 0.75
1159 1 0.45 0 0.65
1160 1 0.4 0.05 0.65
1169 1 0.45 0.1 0.65
1182 1 0.4 0 0.7
1183 1 0.45 0.05 0.7
1184 1 0.45 0 0.75
1185 1 0.4 0.05 0.75
1192 1 0.4 0.1 0.7
1194 1 0.45 0.1 0.75
1166 1 0.3 0.15 0.65
1171 1 0.25 0.2 0.65
1173 1 0.35 0.2 0.65
1186 1 0.25 0.15 0.7
1189 1 0.35 0.15 0.7
1191 1 0.3 0.15 0.75
1196 1 0.25 0.2 0.75
1197 1 0.3 0.2 0.7
1198 1 0.35 0.2 0.75
1170 1 0.4 0.15 0.65
1175 1 0.45 0.2 0.65
1193 1 0.45 0.15 0.7
1195 1 0.4 0.15 0.75
1199 1 0.4 0.2 0.7
1200 1 0.45 0.2 0.75
1201 1 0.25 0.05 0.8
1202 1 0.25 0 0.85
1203 1 0.3 0 0.8
1204 1 0.35 0.05 0.8
1205 1 0.35 0 0.85
1206 1 0.3 0.05 0.85
1212 1 0.25 0.1 0.85
1213 1 0.3 0.1 0.8
1215 1 0.35 0.1 0.85
1207 1 0.4 0 0.8
1208 1 0.45 0.05 0.8
1209 1 0.45 0 0.85
1210 1 0.4 0.05 0.85
1217 1 0.4 0.1 0.8
1219 1 0.45 0.1 0.85
1211 1 0.25 0.15 0.8
1214 1 0.35 0.15 0.8
1216 1 0.3 0.15 0.85
1221 1 0.25 0.2 0.85
1222 1 0.3 0.2 0.8
1223 1 0.35 0.2 0.85
1218 1 0.45 0.15 0.8
1220 1 0.4 0.15 0.85
1224 1 0.4 0.2 0.8
1225 1 0.45 0.2 0.85
1226 1 0.25 0.05 0.9
1227 1 0.25 0 0.95
1228 1 0.3 0 0.9
1229 1 0.35 0.05 0.9
1230 1 0.35 0 0.95
1231 1 0.3 0.05 0.95
1237 1 0.25 0.1 0.95
1238 1 0.3 0.1 0.9
1240 1 0.35 0.1 0.95
1232 1 0.4 0 0.9
1233 1 0.45 0.05 0.9
1234 1 0.45 0 0.95
1235 1 0.4 0.05 0.95
1242 1 0.4 0.1 0.9
1244 1 0.45 0.1 0.95
1236 1 0.25 0.15 0.9
1239 1 0.35 0.15 0.9
1241 1 0.3 0.15 0.95
1246 1 0.25 0.2 0.95
1247 1 0.3 0.2 0.9
1248 1 0.35 0.2 0.95
1243 1 0.45 0.15 0.9
1245 1 0.4 0.15 0.95
1249 1 0.4 0.2 0.9
1250 1 0.45 0.2 0.95
1251 1 0.25 0.25 0
1252 1 0.35 0.25 0
1253 1 0.3 0.25 0.05
1256 1 0.25 0.35 0
1257 1 0.25 0.3 0.05
1258 1 0.3 0.3 0
1259 1 0.35 0.35 0
1260 1 0.35 0.3 0.05
1261 1 0.3 0.35 0.05
1276 1 0.25 0.25 0.1
1277 1 0.35 0.25 0.1
1281 1 0.25 0.35 0.1
1283 1 0.3 0.3 0.1
1284 1 0.35 0.35 0.1
1254 1 0.45 0.25 0
1255 1 0.4 0.25 0.05
1262 1 0.4 0.3 0
1263 1 0.45 0.35 0
1264 1 0.45 0.3 0.05
1265 1 0.4 0.35 0.05
1279 1 0.45 0.25 0.1
1287 1 0.4 0.3 0.1
1288 1 0.45 0.35 0.1
1266 1 0.25 0.45 0
1267 1 0.25 0.4 0.05
1268 1 0.3 0.4 0
1269 1 0.35 0.45 0
1270 1 0.35 0.4 0.05
1271 1 0.3 0.45 0.05
1291 1 0.25 0.45 0.1
1293 1 0.3 0.4 0.1
1294 1 0.35 0.45 0.1
1272 1 0.4 0.4 0
1273 1 0.45 0.45 0
1274 1 0.45 0.4 0.05
1275 1 0.4 0.45 0.05
1297 1 0.4 0.4 0.1
1298 1 0.45 0.45 0.1
1278 1 0.3 0.25 0.15
1282 1 0.25 0.3 0.15
1285 1 0.35 0.3 0.15
1286 1 0.3 0.35 0.15
1301 1 0.25 0.25 0.2
1302 1 0.35 0.25 0.2
1304 1 0.25 0.35 0.2
1305 1 0.3 0.3 0.2
1306 1 0.35 0.35 0.2
1280 1 0.4 0.25 0.15
1289 1 0.45 0.3 0.15
1290 1 0.4 0.35 0.15
1303 1 0.45 0.25 0.2
1307 1 0.4 0.3 0.2
1308 1 0.45 0.35 0.2
1292 1 0.25 0.4 0.15
1295 1 0.35 0.4 0.15
1296 1 0.3 0.45 0.15
1309 1 0.25 0.45 0.2
1310 1 0.3 0.4 0.2
1311 1 0.35 0.45 0.2
1299 1 0.45 0.4 0.15
1300 1 0.4 0.45 0.15
1312 1 0.4 0.4 0.2
1313 1 0.45 0.45 0.2
1314 1 0.3 0.25 0.25
1316 1 0.25 0.3 0.25
1317 1 0.35 0.3 0.25
1318 1 0.3 0.35 0.25
1326 1 0.25 0.25 0.3
1327 1 0.35 0.25 0.3
1328 1 0.3 0.25 0.35
1331 1 0.25 0.35 0.3
1332 1 0.25 0.3 0.35
1333 1 0.3 0.3 0.3
1334 1 0.35 0.35 0.3
1335 1 0.35 0.3 0.35
1336 1 0.3 0.35 0.35
1315 1 0.4 0.25 0.25
1319 1 0.45 0.3 0.25
1320 1 0.4 0.35 0.25
1329 1 0.45 0.25 0.3
1330 1 0.4 0.25 0.35
1337 1 0.4 0.3 0.3
1338 1 0.45 0.35 0.3
1339 1 0.45 0.3 0.35
1340 1 0.4 0.35 0.35
1321 1 0.25 0.4 0.25
1322 1 0.35 0.4 0.25
1323 1 0.3 0.45 0.25
1341 1 0.25 0.45 0.3
1342 1 0.25 0.4 0.35
1343 1 0.3 0.4 0.3
1344 1 0.35 0.45 0.3
1345 1 0.35 0.4 0.35
1346 1 0.3 0.45 0.35
1324 1 0.45 0.4 0.25
1325 1 0.4 0.45 0.25
1347 1 0.4 0.4 0.3
1348 1 0.45 0.45 0.3
1349 1 0.45 0.4 0.35
1350 1 0.4 0.45 0.35
1351 1 0.25 0.25 0.4
1352 1 0.35 0.25 0.4
1353 1 0.3 0.25 0.45
1356 1 0.25 0.35 0.4
1357 1 0.25 0.3 0.45
1358 1 0.3 0.3 0.4
1359 1 0.35 0.35 0.4
1360 1 0.35 0.3 0.45
1361 1 0.3 0.35 0.45
1354 1 0.45 0.25 0.4
1355 1 0.4 0.25 0.45
1362 1 0.4 0.3 0.4
1363 1 0.45 0.35 0.4
1364 1 0.45 0.3 0.45
1365 1 0.4 0.35 0.45
1366 1 0.25 0.45 0.4
1367 1 0.25 0.4 0.45
1368 1 0.3 0.4 0.4
1369 1 0.35 0.45 0.4
1370 1 0.35 0.4 0.45
1371 1 0.3 0.45 0.45
1372 1 0.4 0.4 0.4
1373 1 0.45 0.45 0.4
1374 1 0.45 0.4 0.45
1375 1 0.4 0.45 0.45
1376 1 0.25 0.25 0.5
1377 1 0.35 0.25 0.5
1378 1 0.3 0.25 0.55
1381 1 0.25 0.35 0.5
1382 1 0.25 0.3 0.55
1383 1 0.3 0.3 0.5
1384 1 0.35 0.35 0.5
1385 1 0.35 0.3 0.55
1386 1 0.3 0.35 0.55
1401 1 0.25 0.25 0.6
1402 1 0.35 0.25 0.6
1406 1 0.25 0.35 0.6
1408 1 0.3 0.3 0.6
1409 1 0.35 0.35 0.6
1379 1 0.45 0.25 0.5
1380 1 0.4 0.25 0.55
1387 1 0.4 0.3 0.5
1388 1 0.45 0.35 0.5
1389 1 0.45 0.3 0.55
1390 1 0.4 0.35 0.55
1404 1 0.45 0.25 0.6
1412 1 0.4 0.3 0.6
1413 1 0.45 0.35 0.6
1391 1 0.25 0.45 0.5
1392 1 0.25 0.4 0.55
1393 1 0.3 0.4 0.5
1394 1 0.35 0.45 0.5
1395 1 0.35 0.4 0.55
1396 1 0.3 0.45 0.55
1416 1 0.25 0.45 0.6
1418 1 0.3 0.4 0.6
1419 1 0.35 0.45 0.6
1397 1 0.4 0.4 0.5
1398 1 0.45 0.45 0.5
1399 1 0.45 0.4 0.55
1400 1 0.4 0.45 0.55
1422 1 0.4 0.4 0.6
1423 1 0.45 0.45 0.6
1403 1 0.3 0.25 0.65
1407 1 0.25 0.3 0.65
1410 1 0.35 0.3 0.65
1411 1 0.3 0.35 0.65
1426 1 0.25 0.25 0.7
1427 1 0.35 0.25 0.7
1428 1 0.3 0.25 0.75
1431 1 0.25 0.35 0.7
1432 1 0.25 0.3 0.75
1433 1 0.3 0.3 0.7
1434 1 0.35 0.35 0.7
1435 1 0.35 0.3 0.75
1436 1 0.3 0.35 0.75
1405 1 0.4 0.25 0.65
1414 1 0.45 0.3 0.65
1415 1 0.4 0.35 0.65
1429 1 0.45 0.25 0.7
1430 1 0.4 0.25 0.75
1437 1 0.4 0.3 0.7
1438 1 0.45 0.35 0.7
1439 1 0.45 0.3 0.75
1440 1 0.4 0.35 0.75
1417 1 0.25 0.4 0.65
1420 1 0.35 0.4 0.65
1421 1 0.3 0.45 0.65
1441 1 0.25 0.45 0.7
1442 1 0.25 0.4 0.75
1443 1 0.3 0.4 0.7
1444 1 0.35 0.45 0.7
1445 1 0.35 0.4 0.75
1446 1 0.3 0.45 0.75
1424 1 0.45 0.4 0.65
1425 1 0.4 0.45 0.65
1447 1 0.4 0.4 0.7
1448 1 0.45 0.45 0.7
1449 1 0.45 0.4 0.75
1450 1 0.4 0.45 0.75
1451 1 0.25 0.25 0.8
1452 1 0.35 0.25 0.8
1453 1 0.3 0.25 0.85
1456 1 0.25 0.35 0.8
1457 1 0.25 0.3 0.85
1458 1 0.3 0.3 0.8
1459 1 0.35 0.35 0.8
1460 1 0.35 0.3 0.85
1461 1 0.3 0.35 0.85
1454 1 0.45 0.25 0.8
1455 1 0.4 0.25 0.85
1462 1 0.4 0.3 0.8
1463 1 0.45 0.35 0.8
1464 1 0.45 0.3 0.85
1465 1 0.4 0.35 0.85
1466 1 0.25 0.45 0.8
1467 1 0.25 0.4 0.85
1468 1 0.3 0.4 0.8
1469 1 0.35 0.45 0.8
1470 1 0.35 0.4 0.85
1471 1 0.3 0.45 0.85
1472 1 0.4 0.4 0.8
1473 1 0.45 0.45 0.8
1474 1 0.45 0.4 0.85
1475 1 0.4 0.45 0.85
1476 1 0.25 0.25 0.9
1477 1 0.35 0.25 0.9
1478 1 0.3 0.25 0.95
1481 1 0.25 0.35 0.9
1482 1 0.25 0.3 0.95
1483 1 0.3 0.3 0.9
1484 1 0.35 0.35 0.9
1485 1 0.35 0.3 0.95
1486 1 0.3 0.35 0.95
1479 1 0.45 0.25 0.9
1480 1 0.4 0.25 0.95
1487 1 0.4 0.3 0.9
1488 1 0.45 0.35 0.9
1489 1 0.45 0.3 0.95
1490 1 0.4 0.35 0.95
1491 1 0.25 0.45 0.9
1492 1 0.25 0.4 0.95
1493 1 0.3 0.4 0.9
1494 1 0.35 0.45 0.9
1495 1 0.35 0.4 0.95
1496 1 0.3 0.45 0.95
1497 1 0.4 0.4 0.9
1498 1 0.45 0.45 0.9
1499 1 0.45 0.4 0.95
1500 1 0.4 0.45 0.95
1501 1 0.25 0.55 0
1502 1 0.25 0.5 0.05
1503 1 0.3 0.5 0
1504 1 0.35 0.55 0
1505 1 0.35 0.5 0.05
1506 1 0.3 0.55 0.05
1512 1 0.25 0.6 0.05
1513 1 0.3 0.6 0
1515 1 0.35 0.6 0.05
1531 1 0.25 0.55 0.1
1533 1 0.3 0.5 0.1
1534 1 0.35 0.55 0.1
1543 1 0.3 0.6 0.1
1507 1 0.4 0.5 0
1508 1 0.45 0.55 0
1509 1 0.45 0.5 0.05
1510 1 0.4 0.55 0.05
1517 1 0.4 0.6 0
1519 1 0.45 0.6 0.05
1537 1 0.4 0.5 0.1
1538 1 0.45 0.55 0.1
1547 1 0.4 0.6 0.1
1511 1 0.25 0.65 0
1514 1 0.35 0.65 0
1516 1 0.3 0.65 0.05
1521 1 0.25 0.75 0
1522 1 0.25 0.7 0.05
1523 1 0.3 0.7 0
1524 1 0.35 0.75 0
1525 1 0.35 0.7 0.05
1526 1 0.3 0.75 0.05
1541 1 0.25 0.65 0.1
1544 1 0.35 0.65 0.1
1551 1 0.25 0.75 0.1
1553 1 0.3 0.7 0.1
1554 1 0.35 0.75 0.1
1518 1 0.45 0.65 0
1520 1 0.4 0.65 0.05
1527 1 0.4 0.7 0
1528 1 0.45 0.75 0
1529 1 0.45 0.7 0.05
1530 1 0.4 0.75 0.05
1548 1 0.45 0.65 0.1
1557 1 0.4 0.7 0.1
1558 1 0.45 0.75 0.1
1532 1 0.25 0.5 0.15