
include ${pot}.lmp
include kalj.lmp
units lj
atom_style atomic

variable dimensions equal 3
variable density equal 1.2
variable fraca equal 0.8

dimension ${dimensions}
dimension 3
read_restart ${prevbasename}.final.lmprestart.${steps}
read_restart equil/kalj_T0.65_n360_v300_350000_1.final.lmprestart.${steps}
read_restart equil/kalj_T0.65_n360_v300_350000_1.final.lmprestart.350000
Reading restart file ...
  restart file = 15 Sep 2022, LAMMPS = 15 Sep 2022
  restoring atom style atomic from restart
  orthogonal box = (0 0 0) to (6.6943295 6.6943295 6.6943295)
  4 by 4 by 4 MPI processor grid
  restoring pair style lj/cut from restart
  360 atoms
  read_restart CPU = 0.012 seconds
include ${pot}_particles.lmp
include kalj_particles.lmp
mass * 1.0 #  set mass 1.0 for all types

pair_style lj/cut 2.5
#pair coeffs type1 type2 eps sigma
pair_coeff 1 1 1.0 1.00 2.5
pair_coeff 1 2 1.5 0.80 2.0
pair_coeff 2 2 0.5 0.88 2.2
pair_modify shift yes
reset_timestep 0

print "Setting up equilibration run"
Setting up equilibration run
variable dumptime2 equal ${steps}/2000
variable dumptime2 equal 350000/2000
dump 1 all dcd ${dumptime2} ${basename}.unwrap.dcd
dump 1 all dcd 175 ${basename}.unwrap.dcd
dump 1 all dcd 175 prod/kalj_T0.65_n360_v300_prod_350000_1.unwrap.dcd
#dump 2 all dcd ${dumptime2} ${basename}.dcd
dump_modify 1 unwrap yes
#dump_modify 2 unwrap no

restart ${restarttime} ${basename}.restart
restart 350000 ${basename}.restart
restart 350000 prod/kalj_T0.65_n360_v300_prod_350000_1.restart
restart ${steps} ${basename}.final.lmprestart
restart 350000 ${basename}.final.lmprestart
restart 350000 prod/kalj_T0.65_n360_v300_prod_350000_1.final.lmprestart

thermo ${thermotime}
thermo 70000
timestep ${timestep}
timestep 0.003

neighbor 0.5 bin
neigh_modify every 1 delay ${neighborstep} check yes
neigh_modify every 1 delay 25 check yes

#velocity all create ${temp} ${id} dist gaussian
fix 1 all nvt temp ${temp} ${temp} ${taut}
fix 1 all nvt temp 0.65 ${temp} ${taut}
fix 1 all nvt temp 0.65 0.65 ${taut}
fix 1 all nvt temp 0.65 0.65 0.3
Resetting global fix info from restart file:
  fix style: nvt, fix ID: 1

variable steps4 equal ${steps}/4
variable steps4 equal 350000/4
run ${steps4}
run 87500
Generated 0 of 1 mixed pair_coeff terms from geometric mixing rule
All restart file global fix info was re-assigned
Neighbor list info ...
  update: every = 1 steps, delay = 25 steps, check = yes
  max neighbors/atom: 2000, page size: 100000
  master list distance cutoff = 3
  ghost atom cutoff = 3
  binsize = 1.5, bins = 5 5 5
  1 neighbor lists, perpetual/occasional/extra = 1 0 0
  (1) pair lj/cut, perpetual
      attributes: half, newton on
      pair build: half/bin/atomonly/newton
      stencil: half/bin/3d
      bin: standard
Per MPI rank memory allocation (min/avg/max) = 2.981 | 2.981 | 2.981 Mbytes
   Step          Temp          E_pair         E_mol          TotEng         Press     
         0   0.62954343    -6.5895358      0             -5.6478437      5.9849929    
     70000   0.65594829    -6.5017365      0             -5.5205472      6.4500901    
     87500   0.64677008    -6.6514046      0             -5.6839444      5.5467571    
Loop time of 5.5968 on 64 procs for 87500 steps with 360 atoms

Performance: 4052317.566 tau/day, 15633.941 timesteps/s, 5.628 Matom-step/s
99.6% CPU use with 64 MPI tasks x 1 OpenMP threads

MPI task timing breakdown:
Section |  min time  |  avg time  |  max time  |%varavg| %total
---------------------------------------------------------------
Pair    | 0.1955     | 0.21542    | 0.25647    |   2.4 |  3.85
Neigh   | 0.037468   | 0.041289   | 0.045606   |   0.8 |  0.74
Comm    | 4.0118     | 4.2041     | 4.3735     |   5.1 | 75.12
Output  | 0.12355    | 0.16868    | 0.22388    |   7.2 |  3.01
Modify  | 0.60388    | 0.7897     | 0.93475    |  11.6 | 14.11
Other   |            | 0.1776     |            |       |  3.17

Nlocal:          5.625 ave           8 max           1 min
Histogram: 1 0 1 0 7 19 0 21 13 2
Nghost:        534.312 ave         544 max         525 min
Histogram: 6 5 5 5 13 7 10 5 5 3
Neighs:        324.719 ave         520 max          60 min
Histogram: 1 1 0 4 14 16 15 9 3 1

Total # of neighbors = 20782
Ave neighs/atom = 57.727778
Neighbor list builds = 2746
Dangerous builds = 123
Total wall time: 0:00:07
