
include ${pot}.lmp
include kalj.lmp
units lj
atom_style atomic

variable dimensions equal 3
variable density equal 1.2
variable fraca equal 0.8

dimension ${dimensions}
dimension 3
read_restart ${prevbasename}.final.lmprestart.${steps}
read_restart equil/kalj_T1.5_n360_v300_10000_1.final.lmprestart.${steps}
read_restart equil/kalj_T1.5_n360_v300_10000_1.final.lmprestart.10000
Reading restart file ...
  restart file = 15 Sep 2022, LAMMPS = 15 Sep 2022
  restoring atom style atomic from restart
  orthogonal box = (0 0 0) to (6.6943295 6.6943295 6.6943295)
  4 by 4 by 4 MPI processor grid
  restoring pair style lj/cut from restart
  360 atoms
  read_restart CPU = 0.022 seconds
include ${pot}_particles.lmp
include kalj_particles.lmp
mass * 1.0 #  set mass 1.0 for all types

pair_style lj/cut 2.5
#pair coeffs type1 type2 eps sigma
pair_coeff 1 1 1.0 1.00 2.5
pair_coeff 1 2 1.5 0.80 2.0
pair_coeff 2 2 0.5 0.88 2.2
pair_modify shift yes
reset_timestep 0

print "Setting up equilibration run"
Setting up equilibration run
variable dumptime2 equal ${steps}/2000
variable dumptime2 equal 10000/2000
dump 1 all dcd ${dumptime2} ${basename}.unwrap.dcd
dump 1 all dcd 5 ${basename}.unwrap.dcd
dump 1 all dcd 5 prod/kalj_T1.5_n360_v300_prod_10000_1.unwrap.dcd
#dump 2 all dcd ${dumptime2} ${basename}.dcd
dump_modify 1 unwrap yes
#dump_modify 2 unwrap no

restart ${restarttime} ${basename}.restart
restart 10000 ${basename}.restart
restart 10000 prod/kalj_T1.5_n360_v300_prod_10000_1.restart
restart ${steps} ${basename}.final.lmprestart
restart 10000 ${basename}.final.lmprestart
restart 10000 prod/kalj_T1.5_n360_v300_prod_10000_1.final.lmprestart

thermo ${thermotime}
thermo 1000
timestep ${timestep}
timestep 0.002

neighbor 0.5 bin
neigh_modify every 1 delay ${neighborstep} check yes
neigh_modify every 1 delay 20 check yes

#velocity all create ${temp} ${id} dist gaussian
fix 1 all nvt temp ${temp} ${temp} ${taut}
fix 1 all nvt temp 1.5 ${temp} ${taut}
fix 1 all nvt temp 1.5 1.5 ${taut}
fix 1 all nvt temp 1.5 1.5 0.2
Resetting global fix info from restart file:
  fix style: nvt, fix ID: 1

variable steps4 equal ${steps}/4
variable steps4 equal 10000/4
run ${steps4}
run 2500
Generated 0 of 1 mixed pair_coeff terms from geometric mixing rule
All restart file global fix info was re-assigned
Neighbor list info ...
  update: every = 1 steps, delay = 20 steps, check = yes
  max neighbors/atom: 2000, page size: 100000
  master list distance cutoff = 3
  ghost atom cutoff = 3
  binsize = 1.5, bins = 5 5 5
  1 neighbor lists, perpetual/occasional/extra = 1 0 0
  (1) pair lj/cut, perpetual
      attributes: half, newton on
      pair build: half/bin/atomonly/newton
      stencil: half/bin/3d
      bin: standard
Per MPI rank memory allocation (min/avg/max) = 2.981 | 2.981 | 2.981 Mbytes
   Step          Temp          E_pair         E_mol          TotEng         Press     
         0   1.4149323     -5.1879447      0             -3.0714417      15.326896    
      1000   1.5139727     -5.3047098      0             -3.0400589      14.716429    
      2000   1.5202364     -5.5007134      0             -3.2266931      13.730219    
      2500   1.4785968     -5.168848       0             -2.9571136      15.684258    
Loop time of 0.315705 on 64 procs for 2500 steps with 360 atoms

Performance: 1368365.232 tau/day, 7918.780 timesteps/s, 2.851 Matom-step/s
99.3% CPU use with 64 MPI tasks x 1 OpenMP threads

MPI task timing breakdown:
Section |  min time  |  avg time  |  max time  |%varavg| %total
---------------------------------------------------------------
Pair    | 0.0051717  | 0.0063446  | 0.0073925  |   0.6 |  2.01
Neigh   | 0.0011872  | 0.001342   | 0.001477   |   0.2 |  0.43
Comm    | 0.13703    | 0.17526    | 0.20761    |   4.7 | 55.51
Output  | 0.036812   | 0.078385   | 0.12953    |   9.9 | 24.83
Modify  | 0.026554   | 0.032767   | 0.038267   |   1.7 | 10.38
Other   |            | 0.0216     |            |       |  6.84

Nlocal:          5.625 ave           9 max           3 min
Histogram: 1 9 0 23 0 18 7 0 5 1
Nghost:        541.516 ave         558 max         525 min
Histogram: 4 2 7 8 11 9 13 5 3 2
Neighs:        325.578 ave         489 max         157 min
Histogram: 1 3 6 10 13 13 4 8 1 5

Total # of neighbors = 20837
Ave neighs/atom = 57.880556
Neighbor list builds = 87
Dangerous builds = 0
Total wall time: 0:00:01
