
Host: cm001.hpc.nyu.edu

Timers On : Tue Nov 15 14:45:48 2022
Timers Off: Tue Nov 15 14:45:48 2022

Wall Time:        0.38 seconds

                                                       Time (seconds)
Module                                       User      System        Wall        Calls

--------------------------------------------------------------------------------------

**************************************************************************************
