ITEM: TIMESTEP
0
ITEM: NUMBER OF ATOMS
360
ITEM: BOX BOUNDS pp pp pp
0.0000000000000000e+00 6.6943295008216896e+00
0.0000000000000000e+00 6.6943295008216896e+00
0.0000000000000000e+00 6.6943295008216896e+00
ITEM: ATOMS id type xs ys zs
19 1 0.0871952 0.202064 0.177396
295 2 0.288988 0.104473 0.105566
239 1 0.187912 0.0812612 0.191683
224 1 0.182164 0.119877 0.0364588
208 1 0.033642 0.07288 0.131674
351 2 0.105409 0.0131478 0.0501346
97 1 0.0698805 0.0141422 0.258903
298 2 0.24648 0.0155544 0.479216
356 2 0.109536 0.128548 0.298433
154 1 0.209938 0.0830491 0.353369
257 1 0.20694 0.221467 0.277681
69 1 0.0621684 0.117929 0.401771
17 1 0.239271 0.159823 0.476654
33 1 0.228228 0.185228 0.724447
139 1 0.288879 0.0541694 0.621706
357 2 0.156467 0.0533143 0.690902
129 1 0.122087 0.238603 0.608164
56 1 0.142928 0.0599589 0.541502
313 2 0.0349825 0.0866212 0.614743
54 1 0.0728827 0.143384 0.731038
38 1 0.331609 0.203253 0.602976
13 1 0.00278221 0.0309238 0.511038
102 1 0.00159263 0.194779 0.545085
136 1 0.235763 0.0245139 0.786864
272 1 0.118508 0.0173457 0.91097
98 1 0.186333 0.148566 0.864498
335 2 0.25788 0.156231 0.961587
61 1 0.280009 0.0343825 0.93632
314 2 0.0993101 0.215697 0.994621
243 1 0.0415423 0.198324 0.863139
161 1 0.327397 0.237703 0.866274
103 1 0.0121037 0.464398 0.0354849
214 1 0.0859809 0.319334 0.0627236
25 1 0.23331 0.391252 0.0896791
106 1 0.142433 0.386759 0.22619
290 2 0.0416526 0.452869 0.171389
219 1 0.00187372 0.329853 0.192908
117 1 0.294564 0.497961 0.203221
115 1 0.227949 0.250308 0.110005
175 1 0.0160785 0.40103 0.398399
113 1 0.183497 0.404956 0.369669
342 2 0.236484 0.273986 0.405942
329 2 0.273221 0.448857 0.473353
182 1 0.05968 0.49287 0.302414
59 1 0.113897 0.254177 0.455365
212 1 0.311747 0.480646 0.354845
218 1 0.0792699 0.267958 0.314595
75 1 0.281565 0.366158 0.263502
304 2 0.0306613 0.34669 0.528308
78 1 0.254705 0.45424 0.602219
196 1 0.125076 0.43748 0.505033
101 1 0.229754 0.309351 0.530298
206 1 0.128972 0.390803 0.648888
274 1 0.254991 0.346145 0.718121
322 2 0.017258 0.413438 0.708954
190 1 0.230822 0.485944 0.747066
133 1 0.0778168 0.496373 0.799358
309 2 0.21237 0.289888 0.839318
80 1 0.0698849 0.378958 0.913492
173 1 0.213318 0.4276 0.886232
95 1 0.202326 0.286446 0.961438
202 1 0.106137 0.300898 0.777514
94 1 0.328161 0.34925 0.971111
346 2 0.315258 0.497199 0.919538
308 2 0.332307 0.454523 0.790656
343 2 0.15213 0.638175 0.0877193
23 1 0.0452544 0.606498 0.0511854
278 1 0.171347 0.727107 0.182503
184 1 0.130288 0.554429 0.167314
315 2 0.0280927 0.650439 0.190591
58 1 0.280409 0.638263 0.0705031
48 1 0.179151 0.524949 0.00952387
270 1 0.114822 0.640034 0.304059
81 1 0.150709 0.552897 0.416337
107 1 0.274412 0.634837 0.298402
254 1 0.298579 0.591601 0.464971
350 2 0.193724 0.506392 0.284241
324 2 0.213907 0.709771 0.387258
127 1 0.16471 0.672416 0.492783
100 1 0.0245393 0.647507 0.429965
325 2 0.0678214 0.606364 0.532739
301 2 0.185553 0.546712 0.540076
194 1 0.0733828 0.681756 0.625763
147 1 0.182224 0.591993 0.648554
155 1 0.0268052 0.529884 0.655648
204 1 0.167843 0.606987 0.831905
287 1 0.18196 0.676843 0.973135
299 2 0.0656065 0.527815 0.939612
9 1 0.058028 0.737639 0.939587
3 1 0.310635 0.629764 0.917524
280 1 0.0843878 0.725025 0.793044
134 1 0.279395 0.689113 0.754263
349 2 0.0229341 0.616004 0.753705
166 1 0.224754 0.973095 0.0763859
222 1 0.0912644 0.917431 0.140315
332 2 0.219202 0.864473 0.183146
151 1 0.171918 0.806899 0.0495634
63 1 0.045955 0.765387 0.111198
42 1 0.0906178 0.781572 0.408049
168 1 0.1479 0.844292 0.293746
264 1 0.231696 0.817283 0.45109
142 1 0.309076 0.931628 0.399041
131 1 0.29274 0.80801 0.304106
192 1 0.137914 0.953968 0.399886
191 1 0.23055 0.963897 0.273756
227 1 0.0293634 0.760585 0.264015
259 1 0.108766 0.894117 0.531938
279 1 0.311789 0.820336 0.686936
65 1 0.193433 0.769401 0.599195
252 1 0.174494 0.920992 0.669841
74 1 0.290807 0.925399 0.554791
169 1 0.0536694 0.831223 0.67771
331 2 0.187774 0.78813 0.735918
247 1 0.0178979 0.989273 0.679064
148 1 0.222143 0.899146 0.939168
52 1 0.112694 0.886031 0.816584
246 1 0.208905 0.77093 0.861168
4 1 0.292635 0.886906 0.81915
198 1 0.0597362 0.891045 0.981898
353 2 0.0673275 0.999395 0.796777
2 1 0.308915 0.776927 0.978383
321 2 0.579973 0.0396452 0.0784753
71 1 0.486935 0.022795 0.19666
348 2 0.420755 0.148494 0.149735
250 1 0.505272 0.127914 0.0531672
352 2 0.586713 0.24669 0.054742
267 1 0.377795 0.0482853 0.0564195
188 1 0.60824 0.134513 0.173094
225 1 0.35803 0.187467 0.0388277
199 1 0.336896 0.229362 0.205942
230 1 0.338318 0.0897685 0.230968
122 1 0.644104 0.133854 0.0152512
29 1 0.463292 0.157737 0.29206
253 1 0.468502 0.146794 0.443053
171 1 0.617905 0.100094 0.339598
118 1 0.600609 0.214472 0.449577
12 1 0.433425 0.0251166 0.351976
62 1 0.358464 0.0786903 0.498333
178 1 0.33617 0.176253 0.362485
297 2 0.371899 0.22851 0.468882
32 1 0.583287 0.0526147 0.492258
111 1 0.457935 0.0596769 0.614114
180 1 0.515081 0.196251 0.707043
275 1 0.611393 0.078379 0.698557
104 1 0.482766 0.246884 0.557034
197 1 0.644762 0.190983 0.581856
99 1 0.412496 0.0919671 0.908099
217 1 0.65895 0.0389387 0.859657
93 1 0.357989 0.114457 0.759226
57 1 0.549176 0.155906 0.871421
284 1 0.490763 0.0388675 0.789529
209 1 0.528543 0.00887238 0.932634
345 2 0.436654 0.198771 0.812293
323 2 0.639089 0.20122 0.756491
231 1 0.451524 0.476341 0.20268
18 1 0.387289 0.345507 0.130068
242 1 0.575503 0.372511 0.16591
339 2 0.64184 0.251829 0.170424
123 1 0.501491 0.251222 0.165574
79 1 0.342659 0.499184 0.0498243
193 1 0.557402 0.396975 0.00377841
160 1 0.441723 0.330972 0.289748
294 2 0.421876 0.429189 0.382889
263 1 0.493392 0.335654 0.425783
221 1 0.53461 0.442205 0.317259
128 1 0.606401 0.272925 0.292049
77 1 0.343543 0.343877 0.414672
185 1 0.634056 0.386689 0.418781
333 2 0.63582 0.308475 0.533111
46 1 0.521899 0.431665 0.590754
22 1 0.6254 0.3138 0.669156
64 1 0.39742 0.484281 0.509827
47 1 0.374425 0.353852 0.580784
320 2 0.410115 0.472417 0.633803
233 1 0.391655 0.273274 0.724002
49 1 0.624991 0.496099 0.69721
130 1 0.465064 0.451139 0.740972
326 2 0.43348 0.420817 0.985575
205 1 0.474285 0.256085 0.95824
83 1 0.554211 0.304143 0.806689
85 1 0.413257 0.365283 0.857062
276 1 0.60526 0.459041 0.851743
277 1 0.629731 0.274961 0.933123
195 1 0.60008 0.659256 0.0994353
137 1 0.405246 0.621253 0.156473
8 1 0.422175 0.674428 0.0162751
249 1 0.635305 0.508202 0.137838
20 1 0.495415 0.54104 0.0563818
156 1 0.547452 0.610941 0.228773
150 1 0.42657 0.584238 0.326733
167 1 0.354477 0.720326 0.419278
135 1 0.441573 0.727544 0.275843
45 1 0.593009 0.623479 0.383813
289 2 0.624975 0.519434 0.321725
10 1 0.542147 0.502475 0.459281
1 1 0.449201 0.621871 0.491228
51 1 0.605322 0.665852 0.554543
55 1 0.50072 0.585443 0.645395
292 2 0.483652 0.697365 0.586299
144 1 0.645251 0.653694 0.706486
36 1 0.333687 0.57962 0.623302
40 1 0.430353 0.713853 0.700265
306 2 0.603762 0.535065 0.577637
215 1 0.341906 0.729237 0.572932
146 1 0.433071 0.694968 0.860012
337 2 0.609586 0.545512 0.998205
125 1 0.566921 0.670134 0.954643
110 1 0.535549 0.589777 0.822365
6 1 0.43441 0.527249 0.908727
189 1 0.386796 0.580116 0.772679
213 1 0.485223 0.941088 0.0553077
271 1 0.636391 0.974382 0.187995
262 1 0.367468 0.923835 0.214112
39 1 0.485353 0.79687 0.115414
347 2 0.344255 0.891559 0.0598521
229 1 0.633165 0.817762 0.0604925
187 1 0.60577 0.762489 0.233987
158 1 0.333662 0.771387 0.145284
14 1 0.435451 0.850174 0.380803
105 1 0.570358 0.957782 0.382191
255 1 0.565552 0.766424 0.383364
248 1 0.437204 0.948176 0.487174
293 2 0.373036 0.839267 0.494804
50 1 0.644901 0.866444 0.481252
281 1 0.514199 0.877342 0.2548
307 2 0.506342 0.958518 0.699518
186 1 0.371307 0.960685 0.717712
174 1 0.569337 0.931934 0.598786
165 1 0.570746 0.783657 0.667323
15 1 0.432436 0.866126 0.628754
203 1 0.488918 0.795116 0.516515
72 1 0.616601 0.883522 0.899375
251 1 0.475686 0.85893 0.782893
7 1 0.385644 0.916769 0.930872
226 1 0.481622 0.814607 0.956714
340 2 0.362557 0.781486 0.788802
153 1 0.580751 0.751777 0.824572
360 2 0.391597 0.984364 0.836642
140 1 0.615804 0.921264 0.752021
91 1 0.748951 0.165515 0.107895
70 1 0.987443 0.202772 0.0409822
163 1 0.898091 0.136333 0.128165
302 2 0.886328 0.249362 0.237624
141 1 0.77009 0.0183147 0.132055
170 1 0.898324 0.0180315 0.231795
34 1 0.729159 0.12548 0.43716
240 1 0.880394 0.035624 0.408727
152 1 0.752681 0.024897 0.294355
66 1 0.966944 0.163632 0.261845
244 1 0.735715 0.167608 0.254547
330 2 0.844664 0.108698 0.320629
11 1 0.840519 0.22886 0.377151
316 2 0.979766 0.0561054 0.322761
37 1 0.751308 0.157771 0.694698
109 1 0.707589 0.0489786 0.567576
16 1 0.915624 0.124764 0.687573
207 1 0.861627 0.119745 0.525634
296 2 0.81195 0.0034987 0.510348
89 1 0.718676 0.176468 0.865969
76 1 0.878397 0.17576 0.936277
120 1 0.987969 0.0687694 0.986326
30 1 0.82577 0.0697476 0.82528
238 1 0.794017 0.05756 0.970696
260 1 0.879429 0.237137 0.795283
114 1 0.975714 0.0514163 0.838143
300 2 0.755861 0.185221 0.984703
334 2 0.733925 0.411152 0.136442
164 1 0.849742 0.43123 0.0188137
119 1 0.893784 0.415677 0.157858
234 1 0.861895 0.283261 0.0944326
60 1 0.78357 0.317341 0.213535
220 1 0.709624 0.310682 0.0630575
355 2 0.702779 0.275216 0.396617
211 1 0.786909 0.37306 0.40091
96 1 0.901699 0.361511 0.304644
124 1 0.909278 0.331663 0.492024
157 1 0.693797 0.430438 0.283692
266 1 0.823232 0.490597 0.270834
145 1 0.900145 0.489394 0.403652
312 2 0.975669 0.265853 0.392744
116 1 0.922948 0.398206 0.621686
310 2 0.893677 0.332647 0.718375
319 2 0.748185 0.317698 0.635965
44 1 0.773816 0.421107 0.692599
176 1 0.997302 0.262551 0.684357
200 1 0.668919 0.430446 0.559758
179 1 0.807921 0.44044 0.542545
5 1 0.746778 0.284592 0.512688
261 1 0.909856 0.470941 0.746371
73 1 0.995244 0.499053 0.516787
210 1 0.859628 0.253188 0.601222
228 1 0.796743 0.441783 0.8507
235 1 0.691258 0.45199 0.990214
201 1 0.788752 0.305555 0.929512
28 1 0.963417 0.361278 0.821611
286 1 0.938834 0.480334 0.901859
358 2 0.690246 0.375295 0.897864
108 1 0.728493 0.310877 0.784253
172 1 0.930771 0.325038 0.955818
162 1 0.744833 0.71178 0.147753
177 1 0.959327 0.544186 0.164769
183 1 0.803799 0.5517 0.121402
159 1 0.904256 0.689367 0.137221
359 2 0.830604 0.612422 0.227977
132 1 0.723468 0.616121 0.00962826
341 2 0.958748 0.70516 0.0179613
268 1 0.819348 0.725376 0.0202447
311 2 0.71823 0.727183 0.298834
283 1 0.704139 0.587339 0.254511
92 1 0.825372 0.646544 0.353422
241 1 0.715962 0.720789 0.456587
68 1 0.730636 0.523272 0.402746
291 2 0.851675 0.564316 0.493722
273 1 0.943657 0.633922 0.279319
86 1 0.880799 0.5766 0.61735
149 1 0.866928 0.696273 0.505054
121 1 0.736975 0.581332 0.549108
269 1 0.80385 0.6664 0.716705
318 2 0.728495 0.563389 0.684269
303 2 0.958147 0.701129 0.616947
282 1 0.725304 0.74224 0.605597
24 1 0.938186 0.71572 0.740896
305 2 0.794672 0.528233 0.955263
88 1 0.831684 0.599443 0.85672
336 2 0.734388 0.526087 0.79831
216 1 0.999008 0.620124 0.869354
31 1 0.674247 0.595051 0.875301
327 2 0.921319 0.712923 0.897956
344 2 0.741222 0.689918 0.829984
236 1 0.901526 0.593035 0.998645
67 1 0.671396 0.979835 0.0168618
27 1 0.92635 0.95678 0.0719358
87 1 0.749245 0.865385 0.158742
317 2 0.844649 0.790761 0.114224
84 1 0.94804 0.884379 0.203806
138 1 0.785468 0.878814 0.00454282
82 1 0.925961 0.817905 0.00173292
43 1 0.678452 0.858092 0.327198
53 1 0.824127 0.777631 0.261622
112 1 0.838062 0.896276 0.368899
232 1 0.913874 0.911692 0.489699
328 2 0.821245 0.777079 0.399792
265 1 0.78583 0.839561 0.498606
256 1 0.721787 0.983199 0.435149
35 1 0.996802 0.915233 0.368296
126 1 0.932508 0.756228 0.380533
338 2 0.819832 0.925454 0.254599
354 2 0.969904 0.88378 0.6043
245 1 0.853745 0.801025 0.64901
181 1 0.733471 0.895773 0.625703
223 1 0.706097 0.787748 0.746524
26 1 0.984712 0.781342 0.525346
258 1 0.875092 0.980376 0.615191
21 1 0.757032 0.998296 0.720327
288 1 0.891906 0.951475 0.924973
90 1 0.830162 0.778966 0.84527
143 1 0.911982 0.934741 0.769869
285 1 0.758834 0.913825 0.841389
237 1 0.9681 0.823572 0.844795
41 1 0.69259 0.763292 0.932866
ITEM: TIMESTEP
50000
ITEM: NUMBER OF ATOMS
360
ITEM: BOX BOUNDS pp pp pp
0.0000000000000000e+00 6.6943295008216896e+00
0.0000000000000000e+00 6.6943295008216896e+00
0.0000000000000000e+00 6.6943295008216896e+00
ITEM: ATOMS id type xs ys zs
218 1 0.206749 0.203125 0.124084
61 1 0.249305 0.0393139 0.1419
224 1 0.133702 0.101278 0.233448
95 1 0.0739829 0.131829 0.0977631
298 2 0.114419 0.00711718 0.111737
225 1 0.318468 0.197077 0.028299
115 1 0.182959 0.0451724 0.0108914
178 1 0.260714 0.0473501 0.289718
192 1 0.221103 0.220634 0.278689
254 1 0.0793435 0.204449 0.328016
301 2 0.19274 0.145306 0.384918
33 1 0.111802 0.0459772 0.379804
327 2 0.277684 0.0450984 0.410645
338 2 0.0267308 0.0748404 0.285133
230 1 0.317574 0.175755 0.387275
113 1 0.0682307 0.175728 0.485644
313 2 0.064178 0.0556754 0.491956
129 1 0.257236 0.125792 0.676613
147 1 0.111288 0.111566 0.629893
253 1 0.215219 0.195997 0.549727
114 1 0.0172104 0.192606 0.718815
353 2 0.287414 0.0270271 0.603134
56 1 0.00516237 0.0310329 0.744402
54 1 0.193433 0.0503673 0.508634
316 2 0.310971 0.119929 0.939967
214 1 0.0548214 0.120476 0.924319
216 1 0.280003 0.207584 0.811798
201 1 0.064058 0.247674 0.844216
173 1 0.273046 0.0399831 0.853771
176 1 0.158468 0.112108 0.780245
7 1 0.193854 0.191874 0.94274
237 1 0.142223 0.00890207 0.879211
302 2 0.137358 0.340974 0.0877268
106 1 0.188454 0.481458 0.120746
94 1 0.233195 0.343194 0.178737
81 1 0.032443 0.400438 0.106886
18 1 0.0774989 0.262189 0.182081
179 1 0.0743371 0.262817 0.00736579
184 1 0.0824151 0.474436 0.233987
231 1 0.298657 0.355123 0.0372987
346 2 0.0702064 0.487605 0.0173595
128 1 0.30315 0.331445 0.388745
127 1 0.138153 0.355238 0.300429
139 1 0.16705 0.282694 0.431537
25 1 0.303993 0.490901 0.375722
190 1 0.175083 0.448083 0.476837
317 2 0.161147 0.493081 0.346466
182 1 0.0374547 0.442633 0.371101
11 1 0.00459326 0.304646 0.421002
78 1 0.308848 0.329378 0.728851
320 2 0.198992 0.392917 0.70194
100 1 0.080466 0.405188 0.632571
304 2 0.12012 0.267508 0.574867
64 1 0.215598 0.345453 0.577215
294 2 0.0306212 0.379172 0.513685
134 1 0.160686 0.274934 0.712272
314 2 0.0231934 0.350602 0.724905
325 2 0.311856 0.425601 0.640508
189 1 0.226581 0.335426 0.879713
55 1 0.258306 0.475299 0.79157
215 1 0.100031 0.401853 0.811883
286 1 0.144519 0.403427 0.982978
315 2 0.244297 0.472926 1.00454
172 1 0.00299202 0.358644 0.922004
48 1 0.151934 0.674993 0.231917
287 1 0.10964 0.707212 0.0502182
133 1 0.230818 0.628582 0.122946
299 2 0.301618 0.718078 0.188965
80 1 0.0730017 0.567647 0.111691
332 2 0.0610714 0.740052 0.179616
158 1 0.225405 0.536606 0.245973
3 1 0.333136 0.520452 0.0808451
349 2 0.260609 0.6874 0.00583741
324 2 0.0161337 0.749553 0.31546
92 1 0.103773 0.593356 0.35865
270 1 0.0231175 0.572589 0.485824
264 1 0.0612964 0.716311 0.452507
227 1 0.256877 0.63323 0.383167
296 2 0.153815 0.712608 0.359185
50 1 0.166147 0.599579 0.504741
344 2 0.250401 0.633252 0.606371
340 2 0.041767 0.672592 0.575974
40 1 0.257142 0.626404 0.7235
150 1 0.120127 0.621638 0.666808
74 1 0.330184 0.687244 0.514163
280 1 0.0225449 0.749775 0.674891
36 1 0.16887 0.748173 0.584915
274 1 0.212848 0.513024 0.620877
334 2 0.0945971 0.510449 0.579085
333 2 0.271362 0.535136 0.511659
23 1 0.14044 0.573708 0.831171
24 1 0.269622 0.609743 0.875292
261 1 0.00902387 0.629328 0.765007
177 1 0.012879 0.67142 0.932577
343 2 0.11938 0.700259 0.777748
303 2 0.284091 0.732957 0.798569
282 1 0.0254883 0.511412 0.90654
155 1 0.180183 0.578419 0.99386
9 1 0.162944 0.712054 0.898796
222 1 0.0748821 0.876623 0.0996246
142 1 0.185478 0.807107 0.174119
166 1 0.29731 0.895574 0.205653
131 1 0.212056 0.914627 0.0736208
126 1 0.151086 0.95226 0.230775
151 1 0.310175 0.791174 0.076324
90 1 0.03995 0.99264 0.00930406
97 1 0.108972 0.827658 0.308909
212 1 0.0884506 0.901622 0.442548
167 1 0.22538 0.918269 0.365934
137 1 0.265382 0.772294 0.300093
195 1 0.212403 0.791742 0.437162
69 1 0.327293 0.95442 0.480861
359 2 0.133883 0.849079 0.658769
292 2 0.31127 0.823479 0.540965
102 1 0.205065 0.898 0.555379
198 1 0.209024 0.983802 0.695397
293 2 0.257034 0.87482 0.677637
52 1 0.0643142 0.971096 0.597423
65 1 0.0239934 0.824375 0.553671
42 1 0.300779 0.761796 0.657706
341 2 0.216363 0.918812 0.813447
272 1 0.320776 0.75046 0.915716
98 1 0.283663 0.897546 0.945192
82 1 0.141385 0.872701 0.948089
88 1 0.0450172 0.776817 0.831724
252 1 0.325239 0.857827 0.783591
4 1 0.179289 0.800222 0.759672
223 1 0.0811746 0.906011 0.762363
257 1 0.344732 0.167201 0.199134
348 2 0.401367 0.101054 0.102268
29 1 0.507769 0.157048 0.244474
199 1 0.396497 0.0168834 0.195981
213 1 0.524131 0.0441026 0.104852
347 2 0.567333 0.164331 0.134179
186 1 0.36107 0.0219329 0.0141232
229 1 0.452623 0.211646 0.0896576
342 2 0.39612 0.124266 0.297222
34 1 0.465945 0.219115 0.391443
12 1 0.547134 0.0108441 0.274592
37 1 0.619139 0.16964 0.459163
141 1 0.615174 0.219406 0.316779
356 2 0.620775 0.0874631 0.346394
308 2 0.491924 0.147097 0.722698
180 1 0.599791 0.159419 0.628818
284 1 0.433796 0.0401531 0.647006
85 1 0.395381 0.189632 0.638655
104 1 0.352452 0.106938 0.520424
267 1 0.586699 0.0170986 0.719331
207 1 0.505761 0.247675 0.536367
62 1 0.496834 0.103001 0.510685
323 2 0.564784 0.0297383 0.59211
322 2 0.339992 0.000572061 0.736819
75 1 0.43047 0.159357 0.941541
278 1 0.511189 0.00143708 0.919161
202 1 0.394857 0.103846 0.805893
89 1 0.535238 0.149744 0.842984
67 1 0.666155 0.206125 0.917467
309 2 0.63941 0.137571 0.759446
20 1 0.648118 0.056964 0.869345
122 1 0.564106 0.132613 0.994646
161 1 0.443506 0.366058 0.124998
117 1 0.333084 0.439338 0.21651
319 2 0.338811 0.265989 0.122313
250 1 0.536667 0.309988 0.209609
345 2 0.572184 0.405086 0.0973956
205 1 0.582312 0.283572 0.0439825
130 1 0.483524 0.477414 -0.00126436
157 1 0.567099 0.454635 0.329023
118 1 0.453129 0.373952 0.419241
5 1 0.616532 0.461356 0.473835
171 1 0.608279 0.322038 0.423683
123 1 0.381086 0.312588 0.260939
300 2 0.46929 0.400464 0.266704
38 1 0.41495 0.342357 0.621894
73 1 0.355811 0.435243 0.515433
93 1 0.542919 0.408206 0.719241
59 1 0.633513 0.332067 0.574497
47 1 0.398472 0.452556 0.737614
263 1 0.505789 0.482618 0.585348
336 2 0.644974 0.458151 0.603702
297 2 0.518165 0.372043 0.537313
330 2 0.554508 0.281416 0.657553
77 1 0.349187 0.260901 0.515509
204 1 0.351157 0.48453 0.916309
109 1 0.613503 0.288151 0.803501
193 1 0.370231 0.351082 0.850449
358 2 0.601464 0.347171 0.936535
44 1 0.509197 0.397879 0.862812
136 1 0.442214 0.324231 0.988324
326 2 0.499878 0.266543 0.882051
6 1 0.459803 0.271712 0.749281
339 2 0.343981 0.255007 0.927774
79 1 0.357812 0.592215 0.206099
351 2 0.611351 0.668086 0.0803137
235 1 0.616625 0.534994 0.108775
246 1 0.491142 0.615123 0.0777446
360 2 0.360369 0.646895 0.0893644
43 1 0.572788 0.598336 0.248588
355 2 0.469323 0.651505 0.207061
266 1 0.563887 0.746833 0.161233
110 1 0.474595 0.49798 0.169664
1 1 0.408512 0.681797 0.327359
160 1 0.437657 0.523436 0.31417
248 1 0.553005 0.731967 0.31097
233 1 0.544919 0.630874 0.429904
350 2 0.438244 0.724398 0.446725
156 1 0.411148 0.575985 0.457077
45 1 0.360278 0.54448 0.621257
8 1 0.504486 0.582217 0.709152
354 2 0.632523 0.677148 0.659435
51 1 0.491456 0.652857 0.577789
337 2 0.388848 0.670335 0.661913
26 1 0.632033 0.580531 0.56334
22 1 0.658886 0.534151 0.70248
125 1 0.532926 0.73731 0.700961
58 1 0.547561 0.683451 0.939567
2 1 0.390423 0.628572 0.969871
335 2 0.361018 0.555666 0.793416
279 1 0.477043 0.546935 0.858271
132 1 0.591202 0.637468 0.805867
10 1 0.392504 0.673621 0.798903
46 1 0.6267 0.530099 0.934608
305 2 0.586674 0.503773 0.80399
188 1 0.465663 0.897111 0.124357
39 1 0.411937 0.773361 0.200142
32 1 0.628304 0.915402 0.1729
281 1 0.597891 0.830312 0.000491017
146 1 0.460571 0.756238 0.0541001
311 2 0.342174 0.914448 0.072733
91 1 0.646173 0.991752 0.0265955
17 1 0.396175 0.981407 0.346564
105 1 0.528506 0.816477 0.437579
255 1 0.384131 0.833281 0.408802
14 1 0.629464 0.875801 0.337855
168 1 0.493083 0.869845 0.278978
111 1 0.574296 0.997343 0.424261
140 1 0.43868 0.799645 0.557973
259 1 0.363357 0.900968 0.634549
174 1 0.53731 0.897083 0.642837
312 2 0.614663 0.884418 0.538587
226 1 0.463819 0.955568 0.52335
265 1 0.605046 0.753854 0.540606
331 2 0.558557 0.880109 0.78518
71 1 0.444496 0.881934 0.971334
289 2 0.613688 0.910347 0.896073
87 1 0.633535 0.78377 0.847169
295 2 0.381718 0.970946 0.906361
203 1 0.439295 0.95356 0.786488
232 1 0.471212 0.80419 0.836609
162 1 0.795354 0.0365545 0.118691
251 1 0.820811 0.173266 0.164699
307 2 0.712515 0.119087 0.0708058
30 1 0.968196 0.166705 0.219926
27 1 0.77527 0.225579 0.0205096
191 1 0.914151 0.11513 0.0263967
234 1 0.687838 0.232201 0.149876
271 1 0.675492 0.0849595 0.18172
154 1 0.998187 0.0290338 0.17273
19 1 0.864752 0.066833 0.283711
239 1 0.962023 0.0888944 0.408518
244 1 0.747736 0.120731 0.36896
291 2 0.839231 0.0580015 0.473942
170 1 0.703099 0.0358234 0.489669
175 1 0.897769 0.209074 0.344
208 1 0.8658 0.178497 0.487229
206 1 0.742093 0.145267 0.587012
57 1 0.743029 0.0559012 0.701458
241 1 0.840829 0.0163529 0.595279
247 1 0.970331 0.099328 0.569815
16 1 0.871461 0.125677 0.704125
13 1 0.705855 0.229848 0.706171
210 1 0.767614 0.148738 0.814737
72 1 0.914183 0.102625 0.842971
120 1 0.926662 0.224041 0.928114
217 1 0.781408 0.0777492 0.968914
328 2 0.880781 0.417582 0.119447
119 1 0.805057 0.325485 0.134954
249 1 0.785231 0.493183 0.0991929
70 1 0.933854 0.264474 0.0975156
277 1 0.674085 0.379412 0.179864
76 1 0.678613 0.410457 0.0132704
107 1 0.935342 0.499901 0.201903
211 1 0.858168 0.357475 0.397702
242 1 0.720264 0.409873 0.379676
66 1 0.734745 0.259835 0.463939
219 1 0.764625 0.263711 0.289321
194 1 0.902839 0.474784 0.492108
163 1 0.819459 0.420439 0.256664
103 1 0.952688 0.34226 0.258905
116 1 0.977783 0.280605 0.591569
238 1 0.817063 0.284146 0.61208
209 1 0.716544 0.396692 0.703956
260 1 0.904751 0.402266 0.634548
108 1 0.756498 0.414059 0.543645
357 2 0.825265 0.255058 0.740246
101 1 0.92657 0.289508 0.795017
28 1 0.78861 0.282025 0.878632
228 1 0.97146 0.472716 0.760334
164 1 0.843669 0.408583 0.824904
96 1 0.840221 0.364626 0.994104
306 2 0.906587 0.445807 0.93071
220 1 0.680448 0.409447 0.863438
49 1 0.780407 0.489552 0.937022
268 1 0.956552 0.723835 0.0784779
321 2 0.744851 0.598584 0.0267425
145 1 0.851133 0.612975 0.145023
53 1 0.699867 0.654469 0.183451
187 1 0.743497 0.734221 0.078912
63 1 0.982088 0.650431 0.226551
60 1 0.937677 0.505114 0.0308527
200 1 0.809139 0.688727 0.436406
185 1 0.696183 0.564409 0.395034
35 1 0.94627 0.659844 0.372606
283 1 0.805847 0.643512 0.296656
68 1 0.870866 0.512677 0.34618
290 2 0.993104 0.535449 0.308836
318 2 0.879847 0.589529 0.450586
256 1 0.675469 0.716153 0.388332
221 1 0.706608 0.512872 0.255619
83 1 0.767561 0.69865 0.598585
197 1 0.778575 0.560154 0.539099
273 1 0.916004 0.696252 0.54826
240 1 0.879814 0.678693 0.699431
196 1 0.808938 0.532063 0.683884
86 1 0.964637 0.562315 0.625786
159 1 0.732573 0.685996 0.923064
276 1 0.727259 0.569239 0.822853
165 1 0.879512 0.576108 0.839796
135 1 0.869777 0.628461 0.981897
31 1 0.901401 0.741354 0.837221
144 1 0.742202 0.699073 0.76439
84 1 0.990035 0.830669 0.222815
152 1 0.687355 0.799424 0.223716
262 1 0.76371 0.887138 0.110571
243 1 0.926092 0.865621 0.108187
143 1 0.863878 0.923245 0.234827
138 1 0.852383 0.759088 0.190005
352 2 0.916611 0.993035 0.0934389
181 1 0.724267 0.854077 0.476379
275 1 0.828449 0.955259 0.388822
258 1 0.713656 0.993662 0.288211
236 1 0.957584 0.81723 0.412909
285 1 0.817972 0.795927 0.341301
124 1 0.98752 0.956779 0.314018
329 2 0.861288 0.99488 0.723755
269 1 0.860828 0.848445 0.555059
149 1 0.950664 0.918744 0.667086
21 1 0.810364 0.886103 0.694883
310 2 0.911036 0.790416 0.665882
15 1 0.678275 0.955127 0.615266
148 1 0.694218 0.805846 0.668447
121 1 0.933587 0.959849 0.500677
153 1 0.788093 0.818641 0.830647
245 1 0.939388 0.892165 0.825887
112 1 0.840331 0.788721 0.982548
183 1 0.72233 0.890616 0.951381
288 1 0.871612 0.946658 0.982492
41 1 0.813169 0.983983 0.849669
99 1 0.679178 0.918723 0.772829
169 1 0.996889 0.826048 0.972682
ITEM: TIMESTEP
100000
ITEM: NUMBER OF ATOMS
360
ITEM: BOX BOUNDS pp pp pp
0.0000000000000000e+00 6.6943295008216896e+00
0.0000000000000000e+00 6.6943295008216896e+00
0.0000000000000000e+00 6.6943295008216896e+00
ITEM: ATOMS id type xs ys zs
18 1 0.221041 0.102148 0.0914071
94 1 0.263032 0.23865 0.129321
139 1 0.121246 0.239887 0.212159
30 1 0.065661 0.111943 0.118907
345 2 0.142905 0.219064 0.0851421
301 2 0.202578 0.141377 0.212867
77 1 0.164431 0.0231295 0.205184
69 1 0.296402 0.0980817 0.297098
195 1 0.272794 0.0921924 0.465619
113 1 0.154726 0.126492 0.33807
33 1 0.00469482 0.162776 0.287303
189 1 0.0891363 0.0458409 0.472706
22 1 0.0257459 0.188903 0.434677
54 1 0.256047 0.234656 0.275451
223 1 0.0884314 0.239565 0.66641
147 1 0.141504 0.179047 0.528949
56 1 0.131817 0.0912521 0.703557
209 1 0.253313 0.157127 0.630675
259 1 0.196579 0.0172405 0.577198
62 1 0.258755 0.016111 0.726725
194 1 0.289954 0.231538 0.507192
357 2 0.0200642 0.146288 0.727584
116 1 0.00507693 0.134497 0.581761
225 1 0.230237 0.218579 0.969792
102 1 0.141741 0.224068 0.817741
216 1 0.167399 0.0731084 0.848892
89 1 0.308388 0.166612 0.804991
353 2 0.200159 0.0659532 0.973363
90 1 0.0934581 0.132719 0.978326
205 1 0.322286 0.0837747 0.932135
214 1 0.00512481 0.0932816 0.850775
81 1 0.0351485 0.417436 0.025709
155 1 0.275603 0.442512 0.16462
184 1 0.0423098 0.377201 0.213963
224 1 0.163375 0.344207 0.105722
3 1 0.124785 0.490642 0.147467
191 1 0.00922209 0.258125 0.0990536
2 1 0.227388 0.469913 0.0226093
266 1 0.298625 0.331388 0.0248938
325 2 0.156283 0.406193 0.401404
128 1 0.0594896 0.481785 0.322981
254 1 0.128401 0.279872 0.36885
158 1 0.204217 0.407096 0.288369
74 1 0.29399 0.367177 0.410269
334 2 0.00798138 0.299982 0.338867
192 1 0.126864 0.484115 0.503269
239 1 0.0125282 0.351814 0.463115
95 1 0.270517 0.394244 0.591434
134 1 0.229314 0.300449 0.720785
50 1 0.0776795 0.37039 0.629094
352 2 0.201812 0.271101 0.601453
294 2 0.0625945 0.272473 0.547909
238 1 0.162967 0.339831 0.502592
156 1 0.219006 0.359135 0.883357
201 1 0.0626164 0.278523 0.951892
332 2 0.140632 0.380188 0.988273
165 1 0.0595029 0.38969 0.866868
346 2 0.0867903 0.326651 0.758156
44 1 0.337288 0.439042 0.756012
23 1 0.162042 0.431324 0.751389
320 2 0.0622918 0.574206 0.0460677
137 1 0.214239 0.725438 0.176439
53 1 0.0810144 0.694598 0.251382
179 1 0.224934 0.607129 0.0829884
221 1 0.000159068 0.594676 0.169095
40 1 0.270228 0.658811 0.462735
106 1 0.107028 0.618073 0.421591
55 1 0.236775 0.518003 0.390677
227 1 0.189373 0.716605 0.342175
71 1 0.179486 0.579463 0.263329
65 1 0.00500569 0.74116 0.438356
228 1 0.0433403 0.516118 0.627544
280 1 0.182993 0.573975 0.674056
35 1 0.0584463 0.650952 0.562479
24 1 0.108417 0.714993 0.694498
264 1 0.255 0.712857 0.646182
349 2 0.18909 0.633796 0.555445
47 1 0.268564 0.536354 0.544409
48 1 0.161525 0.750448 0.511681
172 1 0.0915264 0.524109 0.93469
335 2 0.150328 0.616845 0.846104
132 1 0.297925 0.641398 0.921782
282 1 0.0646392 0.545356 0.78333
272 1 0.147782 0.665916 0.96127
169 1 0.0201927 0.677939 0.854474
274 1 0.236339 0.718465 0.794995
286 1 0.234768 0.516526 0.861499
215 1 0.32023 0.587961 0.757043
131 1 0.108881 0.990359 0.0428645
63 1 0.185992 0.88788 0.131699
166 1 0.310872 0.969211 0.063204
287 1 0.247289 0.792441 0.0357714
126 1 0.0470282 0.912305 0.188432
222 1 0.297311 0.95024 0.244112
316 2 0.303609 0.827522 0.229973
339 2 -0.00201393 0.991802 0.109643
237 1 0.0885449 0.758772 0.0983823
299 2 0.124597 0.827344 0.411945
97 1 0.160333 0.855859 0.278799
42 1 0.278952 0.825826 0.395273
175 1 0.0235981 0.906037 0.450544
258 1 0.0175078 0.835101 0.317308
145 1 0.199172 0.963024 0.374607
154 1 0.0548344 0.993829 0.319558
344 2 0.275225 0.965048 0.477376
9 1 0.0318172 0.990564 0.605734
111 1 0.28338 0.876024 0.620542
36 1 0.0331552 0.808678 0.58667
4 1 0.144317 0.921538 0.676463
340 2 0.168363 0.812253 0.624387
206 1 0.174592 0.896097 0.510802
337 2 0.301634 0.754089 0.541172
10 1 0.0255975 0.960293 0.746841
173 1 0.100752 0.815302 0.808741
322 2 0.23253 0.805687 0.904442
348 2 0.136271 0.937598 0.804029
98 1 0.106667 0.814897 0.95709
7 1 0.0658672 0.958179 0.906007
252 1 0.225987 0.950985 0.933379
203 1 0.241645 0.877952 0.799952
257 1 0.354123 0.0865211 0.145582
229 1 0.544662 0.118816 0.136434
328 2 0.657606 0.143687 0.0248405
136 1 0.447984 0.0842247 0.0146228
288 1 0.604411 0.0315776 0.0417136
96 1 0.416355 0.223545 0.121923
14 1 0.624099 0.0205517 0.220732
315 2 0.338055 0.175238 0.0333808
230 1 0.426386 0.125923 0.388793
292 2 0.528221 0.121536 0.260124
199 1 0.558316 0.0318601 0.363522
327 2 0.346668 0.218178 0.382057
178 1 0.582113 0.213787 0.376313
218 1 0.410516 0.196148 0.262108
17 1 0.43947 0.00370792 0.267043
149 1 0.471267 0.0143481 0.49704
271 1 0.646988 0.174876 0.254158
120 1 0.530867 0.0664476 0.626361
75 1 0.61044 0.170361 0.735082
21 1 0.422182 0.157639 0.538088
358 2 0.486237 0.181612 0.721015
85 1 0.402891 0.0720377 0.724292
253 1 0.345639 0.0249597 0.593504
330 2 0.639014 0.232339 0.602413
198 1 0.369733 0.245649 0.646725
242 1 0.574906 0.136245 0.50547
351 2 0.500885 0.0123684 0.911045
284 1 0.400299 0.226805 0.930166
232 1 0.638579 0.0512028 0.857412
267 1 0.497003 0.134472 0.847284
279 1 0.547321 0.202503 0.996036
303 2 0.547271 0.0478243 0.760502
130 1 0.590764 0.453836 0.0454885
117 1 0.375761 0.338973 0.204479
118 1 0.563574 0.42522 0.20122
79 1 0.458939 0.38432 0.0772438
300 2 0.428838 0.455884 0.18127
168 1 0.530659 0.274744 0.242204
302 2 0.597661 0.336604 0.0282693
250 1 0.625903 0.256766 0.114739
321 2 0.494864 0.405413 0.308738
11 1 0.462238 0.299769 0.37278
64 1 0.477633 0.431348 0.435008
38 1 0.608075 0.39102 0.355177
181 1 0.39401 0.465433 0.306141
319 2 0.500639 0.254754 0.481779
211 1 0.636696 0.457224 0.496988
333 2 0.512581 0.400522 0.564407
190 1 0.473237 0.408199 0.68423
73 1 0.398989 0.331805 0.517499
25 1 0.417643 0.489664 0.562393
37 1 0.515805 0.251255 0.626246
20 1 0.629433 0.375606 0.663038