ITEM: TIMESTEP
0
ITEM: NUMBER OF ATOMS
360
ITEM: BOX BOUNDS pp pp pp
0.0000000000000000e+00 6.6943295008216896e+00
0.0000000000000000e+00 6.6943295008216896e+00
0.0000000000000000e+00 6.6943295008216896e+00
ITEM: ATOMS id type xs ys zs
80 1 0.171135 0.227713 0.0555871
33 1 0.0729457 0.21199 0.172569
114 1 0.188563 0.10317 0.135379
267 1 0.324037 0.217026 0.104752
190 1 0.0454199 0.0499468 0.224225
32 1 0.281418 0.151578 0.246111
2 1 0.113627 0.0377893 0.365675
206 1 0.0175653 0.149695 0.470588
192 1 0.269024 0.024708 0.318645
96 1 0.240973 0.153758 0.420056
178 1 0.131031 0.194266 0.310711
350 2 0.130698 0.209891 0.436849
248 1 0.26522 0.0229445 0.494019
5 1 0.0280158 0.125856 0.651971
17 1 0.301566 0.068372 0.668126
349 2 0.210379 0.124511 0.715727
127 1 0.189919 0.152872 0.580344
207 1 0.135112 0.019031 0.664382
130 1 0.31152 0.224229 0.613201
133 1 0.145036 0.246522 0.689012
288 1 0.109774 0.042265 0.509641
352 2 0.13953 0.228956 0.818073
175 1 0.0287314 0.19277 0.888206
224 1 0.275888 0.0716192 0.814932
98 1 0.288309 0.219369 0.773651
260 1 0.13527 0.10097 0.824984
199 1 0.202406 0.190827 0.921477
208 1 0.0781025 0.0306097 0.935932
295 2 0.191715 0.035048 0.906829
353 2 0.104878 0.146484 0.985276
270 1 0.295345 0.0764626 0.988955
39 1 0.219621 0.425892 0.126488
109 1 0.0317564 0.271514 0.00377007
309 2 0.295867 0.399568 0.235151
139 1 0.0946098 0.344437 0.128559
69 1 0.071989 0.490284 0.15304
137 1 0.220436 0.310147 0.213353
155 1 0.262161 0.33346 0.00335218
341 2 0.168759 0.459471 0.41703
214 1 0.0381208 0.46264 0.319632
308 2 0.246362 0.269184 0.35231
64 1 0.145992 0.341529 0.379344
196 1 0.195261 0.448852 0.278352
66 1 0.027039 0.315745 0.283423
257 1 0.283187 0.405239 0.391654
310 2 0.027356 0.298323 0.666019
117 1 0.0812464 0.28262 0.555756
116 1 0.242696 0.472438 0.541463
81 1 0.287549 0.3647 0.652824
342 2 0.16423 0.409006 0.61138
303 2 0.131011 0.491065 0.708539
261 1 0.0321744 0.438069 0.650192
36 1 0.215685 0.295282 0.512613
237 1 0.0786937 0.433652 0.508282
104 1 0.293431 0.355711 0.854516
274 1 0.137827 0.317595 0.907224
292 2 0.199484 0.429415 0.905101
286 1 0.0922374 0.492322 0.853607
51 1 0.322965 0.494095 0.841164
176 1 0.0431838 0.341242 0.801168
216 1 0.193254 0.402091 0.769753
123 1 0.0859566 0.423237 0.994806
91 1 0.321149 0.481948 0.998085
23 1 0.1899 0.722 0.0891766
283 1 0.328006 0.732184 0.112644
202 1 0.197524 0.566077 0.10245
343 2 0.0550516 0.632833 0.156676
107 1 0.276255 0.664902 0.236772
100 1 0.0324779 0.742087 0.210628
344 2 0.267442 0.622207 0.0179402
183 1 0.043605 0.740485 0.384535
61 1 0.17186 0.625537 0.430265
70 1 0.14798 0.599439 0.292617
24 1 0.0256724 0.58901 0.39208
315 2 0.246673 0.551437 0.366957
147 1 0.276068 0.726923 0.380503
14 1 0.32393 0.649667 0.660821
290 2 0.0967673 0.67938 0.527337
101 1 0.11297 0.569805 0.579261
301 2 0.235741 0.631254 0.552635
42 1 0.179093 0.631413 0.699974
211 1 0.0500288 0.573715 0.714466
90 1 0.0794151 0.721706 0.647667
144 1 0.270951 0.502628 0.69016
74 1 0.134022 0.653306 0.835691
25 1 0.230719 0.728438 0.94875
82 1 0.0895686 0.61729 0.988901
228 1 0.205193 0.54447 0.939737
287 1 0.28521 0.62938 0.812701
331 2 0.193605 0.552881 0.806899
360 2 0.219822 0.739306 0.800157
265 1 0.00607509 0.742002 0.780887
300 2 0.0809749 0.968867 0.125741
59 1 0.287593 0.998447 0.137497
215 1 0.271714 0.857069 0.0581597
167 1 0.1359 0.852875 0.146544
63 1 0.0057923 0.915638 0.0163221
52 1 0.168369 0.948348 0.246228
191 1 0.165596 0.969675 0.0327912
131 1 0.310608 0.860266 0.192092
354 2 0.112086 0.824399 0.0329384
164 1 0.0450368 0.885569 0.446974
182 1 0.198305 0.884174 0.389361
159 1 0.16892 0.770816 0.492713
48 1 0.163083 0.766061 0.290328
154 1 0.0527795 0.872486 0.296454
221 1 0.31814 0.880156 0.498206
21 1 0.332537 0.889832 0.33915
94 1 0.305921 0.899995 0.649647
246 1 0.216331 0.772341 0.630656
161 1 0.0774684 0.886112 0.667304
247 1 0.167196 0.908487 0.555135
306 2 0.0177562 0.99669 0.592817
140 1 0.13477 0.810222 0.777234
162 1 0.296932 0.823331 0.862454
9 1 0.20843 0.948295 0.782092
272 1 0.187554 0.88467 0.919506
235 1 0.0348814 0.921678 0.830347
285 1 0.0551108 0.755814 0.929127
222 1 0.319189 0.944499 0.931494
225 1 0.402298 0.101673 0.156843
99 1 0.477752 0.205531 0.0770484
72 1 0.543997 0.0478264 0.16844
356 2 0.581028 0.108395 0.0600526
187 1 0.62498 0.180335 0.144403
166 1 0.483945 0.0281416 0.0417087
297 2 0.372407 0.228255 0.212873
43 1 0.633201 0.10636 0.318895
34 1 0.537563 0.0278844 0.380632
118 1 0.485334 0.161004 0.42741
327 2 0.365137 0.145714 0.362052
142 1 0.386783 0.0347821 0.412837
253 1 0.496677 0.162701 0.263827
296 2 0.626444 0.23043 0.440093
128 1 0.426261 0.0014305 0.264557
200 1 0.584044 0.16766 0.561773
185 1 0.510602 0.0423262 0.540219
108 1 0.559932 0.101619 0.69561
322 2 0.44415 0.12307 0.667136
333 2 0.458812 0.225219 0.531554
319 2 0.635361 0.22564 0.675806
62 1 0.390083 0.114965 0.530514
357 2 0.387783 0.00107177 0.5615
60 1 0.601547 0.100649 0.917205
284 1 0.454771 0.0405271 0.890156
57 1 0.594783 0.213355 0.789004
276 1 0.487145 0.186712 0.928859
275 1 0.450273 0.167226 0.773982
148 1 0.350042 0.227135 0.959914
332 2 0.37576 0.128267 0.876041
244 1 0.50189 0.299165 0.20776
79 1 0.362395 0.380285 0.11842
302 2 0.610669 0.277034 0.0660549
29 1 0.55013 0.430726 0.119168
163 1 0.662334 0.3229 0.164863
233 1 0.465206 0.332763 0.0157783
339 2 0.394276 0.358466 0.418121
38 1 0.371673 0.252719 0.327248
47 1 0.489709 0.341241 0.494378
231 1 0.426285 0.399049 0.291427
335 2 0.550803 0.408544 0.386471
157 1 0.549462 0.282393 0.35711
193 1 0.599149 0.400754 0.282263
78 1 0.355486 0.26646 0.48377
46 1 0.550016 0.389511 0.645597
317 2 0.479391 0.456458 0.578906
75 1 0.378101 0.428479 0.52109
249 1 0.653755 0.311878 0.553452
156 1 0.585677 0.450821 0.5055
328 2 0.391112 0.323759 0.582157
15 1 0.483864 0.257158 0.656951
180 1 0.419624 0.410964 0.737833
337 2 0.382515 0.280842 0.730738
299 2 0.510695 0.489935 0.735345
239 1 0.428996 0.305071 0.833423
242 1 0.616177 0.446635 0.962856
316 2 0.399917 0.390802 0.930524
223 1 0.572618 0.369807 0.790046
1 1 0.485807 0.457697 0.866548
160 1 0.592487 0.305144 0.922111
3 1 0.35045 0.533926 0.155543
158 1 0.573621 0.583251 0.126505
252 1 0.437719 0.651873 0.201263
4 1 0.431973 0.640516 0.0525418
85 1 0.457715 0.512375 0.00715796
263 1 0.498668 0.510707 0.229133
326 2 0.549852 0.654119 0.0302623
77 1 0.336629 0.525794 0.291496
266 1 0.59056 0.685143 0.410716
174 1 0.434788 0.653865 0.363501
348 2 0.541578 0.575606 0.376363
132 1 0.57834 0.672703 0.264589
111 1 0.333992 0.578384 0.479255
20 1 0.660376 0.514688 0.382361
229 1 0.445721 0.508269 0.402362
121 1 0.556776 0.537885 0.627789
273 1 0.337715 0.725007 0.52827
146 1 0.482296 0.666543 0.671698
173 1 0.635346 0.598504 0.520903
50 1 0.486583 0.629812 0.512371
93 1 0.40849 0.538618 0.619673
307 2 0.633063 0.62358 0.663992
282 1 0.58176 0.724374 0.588768
189 1 0.357451 0.615972 0.927745
186 1 0.432917 0.575181 0.789488
311 2 0.373186 0.708137 0.839908
359 2 0.610191 0.697981 0.906291
55 1 0.592863 0.638303 0.776756
8 1 0.562574 0.588877 0.917102
134 1 0.484233 0.710763 0.886912
110 1 0.628973 0.509618 0.797912
138 1 0.515382 0.76974 0.140656
45 1 0.429354 0.907944 0.105454
255 1 0.588753 0.916931 0.107621
320 2 0.48678 0.888506 0.22472
168 1 0.611585 0.821061 0.244219
27 1 0.611508 0.76333 0.0106313
136 1 0.483703 0.774327 0.467784
126 1 0.443718 0.769802 0.269755
346 2 0.385085 0.777556 0.394788
251 1 0.638311 0.819299 0.399399
87 1 0.494351 0.873857 0.354287
135 1 0.597718 0.963574 0.272471
40 1 0.455892 0.921464 0.490084
280 1 0.439759 0.807121 0.606683
179 1 0.359705 0.777804 0.738018
150 1 0.552411 0.833888 0.704494
71 1 0.441508 0.976104 0.715138
171 1 0.631826 0.944441 0.698606
232 1 0.59375 0.857974 0.526312
318 2 0.550814 0.944569 0.604286
7 1 0.582084 0.809623 0.847712
65 1 0.440081 0.868386 0.844101
209 1 0.512703 0.861319 0.981365
12 1 0.636026 0.933129 0.958448
97 1 0.38965 0.777959 0.980174
165 1 0.56847 0.962313 0.823592
345 2 0.342388 0.930922 0.79065
238 1 0.852994 0.103312 0.0535989
84 1 0.700568 0.189449 0.0140422
141 1 0.715291 0.0539297 0.214974
122 1 0.688644 0.0343226 0.0573943
54 1 0.939832 0.242554 0.113647
53 1 0.768039 0.209607 0.165568
113 1 0.883593 0.0811113 0.204471
188 1 0.99798 0.0896333 0.0794339
212 1 0.71274 0.132265 0.444836
256 1 0.791672 0.140907 0.320629
258 1 0.874025 0.150194 0.471807
264 1 0.82313 0.0264822 0.405007
105 1 0.953683 0.016757 0.479573
106 1 0.981156 0.127293 0.327793
340 2 0.92969 0.223952 0.392123
115 1 0.899099 0.240099 0.254096
281 1 0.68407 0.243051 0.302445
298 2 0.845269 0.232577 0.687746
11 1 0.707534 0.133537 0.645817
323 2 0.787798 0.0551089 0.532207
35 1 0.881751 0.110507 0.638611
181 1 0.682143 0.00687959 0.555725
10 1 0.783318 0.233555 0.571774
169 1 0.92651 0.238932 0.587566
129 1 0.78484 0.000526204 0.692995
243 1 0.963435 0.224847 0.741262
271 1 0.751318 0.0525687 0.924862
230 1 0.881596 0.155027 0.914776
18 1 0.985497 0.0792555 0.800316
83 1 0.739082 0.228037 0.880904
210 1 0.823513 0.140231 0.766707
95 1 0.692169 0.0790242 0.787504
30 1 0.926624 0.0326785 0.951226
218 1 0.820286 0.337526 0.131453
226 1 0.707798 0.473345 0.0851966
184 1 0.950927 0.380154 0.0705249
177 1 0.947158 0.424584 0.213246
250 1 0.715582 0.346606 0.0144781
125 1 0.830916 0.481575 0.149333
119 1 0.796282 0.456152 0.401065
76 1 0.898721 0.363765 0.3488
220 1 0.746871 0.42377 0.265615
312 2 0.868194 0.486691 0.296183
330 2 0.872169 0.278348 0.493558
195 1 0.678189 0.354468 0.41161
197 1 0.776427 0.255474 0.422622
294 2 0.904929 0.399394 0.459745
358 2 0.798189 0.310637 0.280339
103 1 0.991259 0.30504 0.450696
124 1 0.829245 0.387104 0.553298
102 1 0.906121 0.355551 0.687674
68 1 0.738881 0.293001 0.732217
355 2 0.70715 0.418852 0.536747
227 1 0.688178 0.436581 0.65171
313 2 0.972158 0.360127 0.570859
205 1 0.823074 0.425587 0.974806
201 1 0.917592 0.455299 0.83318
241 1 0.729531 0.393902 0.845684
112 1 0.880097 0.30162 0.844128
314 2 0.964297 0.384397 0.918667
28 1 0.851805 0.284096 0.995333
291 2 0.80859 0.406619 0.752711
254 1 0.944957 0.596342 0.240785
236 1 0.818434 0.664871 0.195325
172 1 0.961207 0.730607 0.0567743
92 1 0.677795 0.547285 0.215603
278 1 0.960576 0.590867 0.101416
213 1 0.674417 0.69157 0.136896
262 1 0.670039 0.602835 0.018042
86 1 0.81327 0.745104 0.0630224
219 1 0.829312 0.567658 0.0228478
26 1 0.795749 0.585514 0.315047
37 1 0.74748 0.678793 0.444355
153 1 0.871145 0.595005 0.441699
170 1 0.716642 0.721141 0.308224
234 1 0.901132 0.72869 0.362365
49 1 0.764662 0.539713 0.528165
204 1 0.856917 0.632054 0.590328
22 1 0.748674 0.579393 0.698972
149 1 0.940982 0.50462 0.532543
41 1 0.743601 0.729758 0.613521
73 1 0.908742 0.517836 0.692548
329 2 0.993085 0.600182 0.593121
145 1 0.968481 0.712416 0.514725
347 2 0.764948 0.678231 0.973537
6 1 0.73541 0.671146 0.846592
58 1 0.996824 0.598963 0.84189
88 1 0.865996 0.695189 0.911659
31 1 0.87045 0.638035 0.761482
44 1 0.805184 0.537007 0.847722
324 2 0.725587 0.515068 0.944383
305 2 0.974633 0.659159 0.956317
277 1 0.98085 0.535705 0.971223
338 2 0.909877 0.988995 0.0856157
198 1 0.793001 0.924837 0.15844
351 2 0.704544 0.875684 0.0608042
321 2 0.741304 0.791738 0.177764
334 2 0.863972 0.85572 0.0747906
143 1 0.804096 0.945707 0.00947478
203 1 0.945901 0.931436 0.187335
289 2 0.997557 0.835216 0.112996
19 1 0.751005 0.892853 0.306952
279 1 0.90778 0.852549 0.439956
325 2 0.794554 0.80118 0.400427
240 1 0.943858 0.966255 0.339961
13 1 0.682172 0.980367 0.411187
151 1 0.857759 0.824786 0.250717
194 1 0.980103 0.844682 0.566288
304 2 0.671579 0.829594 0.626833
56 1 0.792985 0.862892 0.662459
245 1 0.912829 0.751274 0.67009
259 1 0.850744 0.944878 0.547204
293 2 0.850017 0.784211 0.56046
89 1 0.945898 0.962433 0.694575
16 1 0.737224 0.830453 0.517347
336 2 0.975739 0.8466 0.7206
269 1 0.679145 0.761469 0.736344
268 1 0.824414 0.816624 0.792036
217 1 0.908365 0.85007 0.926753
152 1 0.751967 0.798121 0.930311
67 1 0.721208 0.932238 0.819206
120 1 0.868883 0.956234 0.835276
ITEM: TIMESTEP
10000
ITEM: NUMBER OF ATOMS
360
ITEM: BOX BOUNDS pp pp pp
0.0000000000000000e+00 6.6943295008216896e+00
0.0000000000000000e+00 6.6943295008216896e+00
0.0000000000000000e+00 6.6943295008216896e+00
ITEM: ATOMS id type xs ys zs
32 1 0.281968 0.131439 0.158663
80 1 0.1798 0.222778 0.052672
114 1 0.131514 0.0862708 0.119765
115 1 0.100956 0.24155 0.199124
300 2 0.0530989 0.216 0.0753336
308 2 0.324536 0.178039 0.275232
240 1 0.0206424 0.130305 0.310506
327 2 0.279652 0.0235955 0.246206
106 1 0.103963 0.141907 0.441313
178 1 0.257455 0.157937 0.39355
59 1 0.179315 0.116702 0.268796
96 1 0.0905776 9.37693e-05 0.338819
142 1 0.273764 0.00269536 0.381606
345 2 0.235401 0.153397 0.682636
206 1 0.17956 0.23353 0.614224
175 1 0.0767672 0.209447 0.724288
62 1 0.218178 0.109323 0.539693
35 1 0.0568886 0.129389 0.573147
248 1 0.289476 0.03346 0.640654
207 1 0.141002 0.0772833 0.679935
349 2 0.0884798 0.133527 0.833425
33 1 0.107029 0.131819 0.963484
148 1 0.204675 0.114679 0.839763
352 2 0.228212 0.216562 0.909504
224 1 0.0982385 0.0110577 0.880591
199 1 0.24575 0.0980102 0.990787
275 1 0.326824 0.138099 0.761917
267 1 0.337896 0.229756 0.992878
184 1 0.187107 0.384601 0.20365
228 1 0.122896 0.399268 0.0279419
85 1 0.273677 0.34989 0.0881611
218 1 0.0125243 0.385085 0.139574
316 2 0.242822 0.26779 0.186957
202 1 0.231002 0.496836 0.0883251
257 1 0.292416 0.298062 0.30532
341 2 0.176285 0.366626 0.327437
117 1 0.125267 0.389126 0.444673
64 1 0.251458 0.3231 0.476813
196 1 0.267409 0.453411 0.382691
214 1 0.0599563 0.349796 0.285815
103 1 0.130446 0.504288 0.312271
313 2 0.137872 0.25911 0.483419
190 1 0.000852372 0.291517 0.421669
139 1 0.14452 0.249562 0.351063
116 1 0.205944 0.486388 0.541069
216 1 0.0342858 0.493024 0.747496
81 1 0.227309 0.38004 0.638497
145 1 0.0823085 0.408771 0.616425
261 1 0.021177 0.288251 0.597503
51 1 0.34039 0.482795 0.647624
93 1 0.30485 0.409395 0.77757
104 1 0.134272 0.477988 0.89705
155 1 0.217033 0.344158 0.936785
176 1 0.0281521 0.378817 0.866691
299 2 0.273629 0.448906 0.981434
91 1 0.0401318 0.272521 0.978451
133 1 0.144798 0.388601 0.765612
98 1 0.12913 0.254564 0.857801
127 1 0.23308 0.261735 0.759772
343 2 0.0985857 0.557211 0.036674
294 2 0.22709 0.508364 0.227726
97 1 0.313645 0.722759 0.0315414
48 1 0.218027 0.712981 0.144066
69 1 0.109484 0.548528 0.166236
100 1 0.0773631 0.684535 0.0678609
354 2 0.31291 0.602103 0.0484453
237 1 0.201059 0.577802 0.415662
61 1 0.191204 0.632286 0.268105
254 1 0.0546648 0.632142 0.351462
273 1 0.164472 0.730903 0.420813
194 1 0.0392688 0.522287 0.445034
90 1 0.147999 0.636384 0.541028
42 1 0.199144 0.703248 0.701859
101 1 0.179958 0.510341 0.694029
301 2 0.244632 0.588448 0.628345
329 2 0.0198473 0.526578 0.608325
161 1 0.0630554 0.646772 0.675389
331 2 0.328424 0.731136 0.725563
325 2 0.0505078 0.725748 0.523522
74 1 0.129046 0.620046 0.810564
285 1 0.0867187 0.739198 0.934761
303 2 0.253921 0.528414 0.804615
25 1 0.194999 0.627433 0.987653
58 1 0.0323533 0.574659 0.934915
1 1 0.313001 0.577928 0.913124
315 2 0.205359 0.825575 0.210197
167 1 0.0992386 0.844937 0.16184
215 1 0.308079 0.839624 0.145684
208 1 0.141296 0.958406 0.0334393
191 1 0.198337 0.967652 0.188679
23 1 0.188023 0.816149 0.042153
203 1 0.0200873 0.982718 0.133753
222 1 0.292452 0.969973 0.0794547
63 1 0.0114851 0.863288 0.0088341
289 2 0.0845377 0.93276 0.232241
279 1 0.044919 0.855955 0.396368
182 1 0.183312 0.870823 0.336972
52 1 0.300343 0.8446 0.432519
357 2 0.171026 0.925089 0.440987
70 1 0.0873364 0.767359 0.282201
252 1 0.311164 0.758043 0.274863
2 1 0.109872 0.997656 0.535764
288 1 0.0137071 0.919066 0.710776
94 1 0.267722 0.947246 0.524224
247 1 0.145556 0.898817 0.671811
246 1 0.129394 0.842034 0.521661
306 2 0.111058 0.783179 0.636818
280 1 0.270908 0.830944 0.670192
179 1 0.239199 0.753248 0.558883
162 1 0.214314 0.956389 0.786346
360 2 0.214313 0.825173 0.785686
65 1 0.310917 0.864422 0.959108
272 1 0.163235 0.878525 0.905026
295 2 0.225355 0.99197 0.907207
9 1 0.0794368 0.782098 0.77435
140 1 0.242589 0.74902 0.87843
225 1 0.413125 0.106248 0.0274559
253 1 0.434003 0.133064 0.180946
43 1 0.566037 0.0591383 0.219836
281 1 0.654889 0.186797 0.217028
187 1 0.572358 0.13406 0.0736556
297 2 0.442997 0.211109 0.0805479
38 1 0.396915 0.0696107 0.312431
296 2 0.631701 0.16783 0.438694
118 1 0.58974 0.0418505 0.369184
244 1 0.542929 0.188978 0.329529
78 1 0.403322 0.214415 0.377656
47 1 0.511096 0.147871 0.493703
185 1 0.37708 0.0667219 0.481564
320 2 0.476937 0.0771521 0.397471
171 1 0.657398 0.0626967 0.652999
36 1 0.358632 0.221289 0.533619
57 1 0.527041 0.110478 0.723234
17 1 0.429419 0.0913345 0.621487
333 2 0.552971 0.0935527 0.602782
212 1 0.627821 0.192283 0.572669
200 1 0.640523 0.240102 0.734457
284 1 0.336519 0.0189938 0.874451
95 1 0.453737 0.118013 0.863812
332 2 0.335933 0.151493 0.897581
356 2 0.484819 0.202191 0.955449
60 1 0.593026 0.181181 0.870066
165 1 0.593394 0.0359949 0.853405
242 1 0.558333 0.423646 0.103438
29 1 0.53544 0.274699 0.157388
99 1 0.444345 0.333062 0.0399908
137 1 0.375204 0.268457 0.186187
3 1 0.500678 0.490941 0.252155
335 2 0.45634 0.392199 0.176166
302 2 0.656123 0.267513 0.117668
39 1 0.342507 0.461907 0.190462
157 1 0.629033 0.394666 0.245564
339 2 0.574753 0.316518 0.332963
231 1 0.449295 0.339863 0.307106
263 1 0.43298 0.463599 0.400762
342 2 0.366914 0.320491 0.418116
309 2 0.354622 0.425188 0.303707
75 1 0.502016 0.314812 0.448612
220 1 0.622079 0.420044 0.397212
46 1 0.627898 0.348583 0.604151
322 2 0.573312 0.357704 0.745625
144 1 0.384355 0.381345 0.536418
195 1 0.549037 0.467387 0.55468
15 1 0.467138 0.40323 0.674242
108 1 0.501268 0.266999 0.598766
241 1 0.614567 0.475346 0.706799
130 1 0.359935 0.27771 0.676771
355 2 0.666184 0.436013 0.519027
233 1 0.393929 0.433725 0.910522
337 2 0.423159 0.370321 0.800453
180 1 0.523855 0.449617 0.81764
83 1 0.644182 0.352369 0.839328
276 1 0.487634 0.314326 0.89508
326 2 0.521964 0.409748 0.960582
239 1 0.352416 0.263303 0.850354
110 1 0.654622 0.445002 0.991633
250 1 0.602947 0.287377 0.992912
223 1 0.499938 0.257921 0.76073
292 2 0.401002 0.479059 0.760819
158 1 0.520042 0.598059 0.143205
348 2 0.607649 0.523506 0.176841
107 1 0.340303 0.634006 0.185039
79 1 0.418025 0.515177 0.0632885
4 1 0.445444 0.650589 0.00650241
131 1 0.438398 0.742628 0.142637
283 1 0.600878 0.744697 0.102343
347 2 0.561483 0.667269 0.00194317
229 1 0.560876 0.553051 0.402871
346 2 0.443345 0.608048 0.393644
136 1 0.540403 0.712212 0.416749
132 1 0.450841 0.666161 0.277348
92 1 0.597975 0.665131 0.254477
147 1 0.344916 0.69156 0.419484
317 2 0.644059 0.646209 0.375215
174 1 0.330789 0.560801 0.494862
77 1 0.336016 0.576554 0.334428
14 1 0.362389 0.647685 0.608064
328 2 0.425754 0.525941 0.572231
311 2 0.496224 0.673816 0.642246
121 1 0.499957 0.57236 0.705571
156 1 0.630982 0.601758 0.591795
173 1 0.590258 0.706375 0.727096
111 1 0.476986 0.622036 0.516642
8 1 0.38176 0.730154 0.876939
186 1 0.447728 0.586323 0.852275
55 1 0.618841 0.58953 0.829026
359 2 0.45667 0.681465 0.776363
6 1 0.549827 0.707099 0.886706
262 1 0.544437 0.546171 0.970961
189 1 0.342043 0.61292 0.756957
72 1 0.544713 0.880311 0.131902
45 1 0.421949 0.897188 0.0520014
12 1 0.55957 1.00062 0.0226373
270 1 0.432377 0.97686 0.179524
321 2 0.641957 0.801362 0.198691
21 1 0.440165 0.813033 0.373143
126 1 0.570977 0.854051 0.422337
128 1 0.488363 0.944039 0.316748
135 1 0.619728 0.920834 0.253305
40 1 0.43022 0.936145 0.460757
255 1 0.524164 0.791391 0.245749
192 1 0.343357 0.905883 0.279904
150 1 0.477165 0.929591 0.620193
56 1 0.590213 0.940673 0.713034
318 2 0.382253 0.990046 0.573504
307 2 0.56012 0.819213 0.704791
221 1 0.401232 0.789068 0.539341
50 1 0.546788 0.77202 0.589564
134 1 0.432464 0.808647 0.682318
34 1 0.563592 1.00044 0.510783
282 1 0.65794 0.891226 0.551305
146 1 0.492469 0.835921 0.828639
209 1 0.489173 0.791899 0.986068
344 2 0.578189 0.854478 0.916128
287 1 0.34315 0.8729 0.808142
166 1 0.458293 0.951271 0.91084
7 1 0.660528 0.842143 0.800886
71 1 0.454781 0.984737 0.766167
113 1 0.982024 0.128168 0.110467
238 1 0.841426 0.0475828 0.0748
358 2 0.86118 0.162512 0.111594
105 1 0.805951 0.172038 0.232645
53 1 0.683644 0.0029147 0.121454
19 1 0.902595 0.0552631 0.223466
84 1 0.737856 0.180693 0.0875085
66 1 0.939504 0.246747 0.224426
169 1 0.957872 0.159531 0.458529
256 1 0.740229 0.146209 0.382513
350 2 0.8832 0.11241 0.355628
141 1 0.713151 0.0376865 0.25667
13 1 0.817573 0.00624076 0.354799
259 1 0.955162 0.0127398 0.441602
5 1 0.915424 0.174121 0.622772
181 1 0.828702 0.0492727 0.661634
11 1 0.774552 0.202352 0.658001
10 1 0.803463 0.2178 0.503382
129 1 0.953021 0.0250564 0.608251
323 2 0.865139 0.067894 0.523547
87 1 0.713263 0.0760132 0.518149
310 2 0.904782 0.214743 0.736098
122 1 0.698235 0.0727214 0.97247
18 1 0.712521 0.118709 0.795858
54 1 0.901505 0.155451 0.975427
274 1 0.982837 0.199255 0.845044
243 1 0.86477 0.116514 0.803596
353 2 0.965565 0.0750314 0.877103
271 1 0.763129 0.207703 0.924827
230 1 0.840701 0.00629333 0.9261
260 1 1.00589 0.0769787 0.751614
188 1 0.994169 0.0242072 0.993105
76 1 0.758873 0.313098 0.184759
312 2 0.880157 0.354948 0.201805
205 1 0.71968 0.465557 0.137918
163 1 0.898501 0.288979 0.0675424
160 1 0.749735 0.332239 0.0338991
28 1 0.86563 0.432274 0.0962114
177 1 0.978672 0.500051 0.231306
219 1 0.831725 0.457677 0.23942
119 1 0.92346 0.413636 0.359207
125 1 0.769535 0.366937 0.354503
258 1 0.865066 0.246174 0.361748
330 2 0.732099 0.257387 0.302366
197 1 0.690068 0.278816 0.435132
102 1 0.964081 0.325985 0.731716
112 1 0.867429 0.313282 0.623303
298 2 0.918615 0.273535 0.51342
68 1 0.748951 0.39731 0.677268
319 2 0.745207 0.298126 0.573675
124 1 0.942243 0.405005 0.527123
211 1 0.909796 0.478394 0.661519
249 1 0.789071 0.389165 0.511975
314 2 0.746286 0.381276 0.908469
31 1 0.817317 0.457006 0.952825
44 1 0.724408 0.468464 0.816565
210 1 0.797207 0.280884 0.786736
109 1 0.901326 0.325435 0.915655
201 1 0.855152 0.418996 0.788231
286 1 0.973203 0.435558 0.993152
82 1 0.972891 0.570992 0.084818
123 1 0.850006 0.588711 0.17858
86 1 0.812825 0.702406 0.0782581
278 1 0.999945 0.663297 0.226652
324 2 0.803597 0.545311 0.0668763
138 1 0.728918 0.707506 0.20812
226 1 0.667386 0.61555 0.0898134
172 1 0.94701 0.708866 -0.00297827
20 1 0.708522 0.561957 0.463079
26 1 0.859044 0.518413 0.472013
183 1 0.911907 0.579325 0.336775
159 1 0.940423 0.72685 0.363585
170 1 0.762373 0.663036 0.341758
293 2 0.902247 0.637746 0.459554
193 1 0.673556 0.538592 0.30241
266 1 0.669284 0.723081 0.478007
290 2 0.796202 0.508714 0.372087
73 1 0.89162 0.664806 0.700338
149 1 0.764081 0.520577 0.60601
49 1 0.814141 0.661681 0.565108
227 1 0.726448 0.634798 0.724591
24 1 0.953363 0.612425 0.559033
291 2 0.785584 0.527441 0.725288
41 1 0.703864 0.751532 0.635949
22 1 0.826659 0.611012 0.827357
265 1 0.936534 0.513598 0.848259
204 1 0.972314 0.657831 0.839024
88 1 0.871253 0.589737 0.97621
277 1 0.713056 0.59184 0.944145
268 1 0.818852 0.726719 0.915606
305 2 0.697456 0.690417 0.846438
198 1 0.889681 0.918353 0.152079
27 1 0.688575 0.85938 0.0814658
351 2 0.773866 0.949544 0.0188435
334 2 0.779853 0.830852 0.158483
151 1 0.952623 0.778018 0.13751
152 1 0.840028 0.843584 0.0167366
37 1 0.802134 0.789055 0.438094
251 1 0.706614 0.93122 0.402882
264 1 0.898027 0.885911 0.390349
234 1 0.769837 0.89127 0.264995
340 2 0.973799 0.992005 0.293917
168 1 0.667124 0.791374 0.320254
154 1 0.980859 0.863628 0.257539
236 1 0.85816 0.754567 0.251881
16 1 0.975955 0.900454 0.547417
304 2 0.909521 0.912113 0.650754
232 1 0.818004 0.949679 0.541621
217 1 0.753859 0.902735 0.672416
245 1 0.843579 0.799985 0.616319
164 1 0.98991 0.78105 0.63987
153 1 0.934937 0.754666 0.500863
336 2 0.96512 0.78175 0.886471
338 2 0.916399 0.915052 0.947042
67 1 0.676743 0.924163 0.941471
30 1 0.804995 0.862655 0.87174
213 1 0.663319 0.768029 0.955294
89 1 0.908351 0.804463 0.775148
143 1 0.729972 0.970607 0.807664
120 1 0.890624 0.964518 0.792396
269 1 0.778245 0.761875 0.773837
235 1 0.99803 0.913175 0.86722
ITEM: TIMESTEP
20000
ITEM: NUMBER OF ATOMS
360
ITEM: BOX BOUNDS pp pp pp
0.0000000000000000e+00 6.6943295008216896e+00
0.0000000000000000e+00 6.6943295008216896e+00
0.0000000000000000e+00 6.6943295008216896e+00
ITEM: ATOMS id type xs ys zs
224 1 0.0692599 0.0587431 0.116379
106 1 0.130729 0.16774 0.232466
114 1 0.177331 0.139618 0.0708779
59 1 0.290802 0.135153 0.206469
214 1 0.0150939 0.225905 0.147201
267 1 0.324388 0.17639 0.034853
341 2 0.121787 0.241674 0.0920262
222 1 0.253259 0.0068492 0.113447
178 1 0.181488 0.0832078 0.340063
113 1 -0.0221029 0.162884 0.289739
169 1 0.0386087 0.0564506 0.436958
38 1 0.255475 0.212957 0.410011
185 1 0.321979 0.109269 0.506781
19 1 0.0974526 0.195313 0.415024
154 1 0.0630753 0.0224943 0.261826
142 1 0.337303 0.0676374 0.351324
35 1 0.0837115 0.181083 0.66825
62 1 0.247375 0.0809144 0.64601
298 2 0.0424289 0.187056 0.527985
247 1 0.058214 0.0387834 0.741056
206 1 0.297579 0.227827 0.64207
357 2 0.114392 0.0679238 0.605302
139 1 0.178658 0.158744 0.534806
332 2 0.323402 0.0623169 0.749675
274 1 0.075689 0.148028 0.826302
272 1 0.19644 0.0310653 0.827873
239 1 0.204836 0.224284 0.922103
115 1 0.0651714 0.220597 0.985455
162 1 0.0919907 0.0583372 0.952189
207 1 0.225999 0.177588 0.772616
295 2 0.228292 0.05196 0.972506
184 1 0.226018 0.329014 0.0268182
77 1 0.304222 0.416747 0.133403
103 1 0.067432 0.344696 0.0626457
257 1 0.172529 0.336064 0.174467
119 1 0.0611542 0.420937 0.201721
290 2 0.069056 0.287855 0.240757
80 1 0.340286 0.283493 0.152788
252 1 0.168171 0.493302 0.116285
194 1 0.0821869 0.470034 0.465588
124 1 0.0235852 0.389919 0.357568
96 1 0.160709 0.306704 0.325376
64 1 0.25352 0.397595 0.414347
231 1 0.299769 0.36225 0.283521
117 1 0.199675 0.478973 0.25978
308 2 0.256098 0.250667 0.267022
78 1 0.140099 0.325274 0.484376
101 1 0.195677 0.469853 0.700878
47 1 0.308921 0.299218 0.518321
313 2 0.0427022 0.411941 0.621206
261 1 0.154864 0.331022 0.660981
81 1 0.213502 0.454473 0.563058
155 1 0.319104 0.366783 0.670531
104 1 0.268739 0.403774 0.893847
133 1 0.0545165 0.421899 0.749563
294 2 0.196619 0.475074 0.956584
228 1 0.129871 0.351372 0.900944
127 1 0.243395 0.325865 0.781543
299 2 0.290307 0.484493 0.79144
349 2 0.111966 0.263771 0.779263
98 1 -0.000698238 0.277112 0.848746
23 1 0.257806 0.649814 0.0768707
100 1 0.146131 0.631742 0.178766
315 2 0.268411 0.545754 0.167109
131 1 0.282772 0.720831 0.203762
82 1 0.0559927 0.639123 0.0575833
343 2 0.148944 0.744201 0.0762836
48 1 0.289462 0.515631 0.0208241
324 2 0.033908 0.523053 0.0858202
14 1 0.249771 0.693998 0.454749
273 1 0.250462 0.545077 0.423165
182 1 0.141672 0.655406 0.350006
278 1 0.0575571 0.54151 0.320146
70 1 0.0192887 0.715993 0.278969
90 1 0.0191868 0.678313 0.588948
189 1 0.273017 0.615214 0.582716
179 1 0.0507814 0.529734 0.639795
318 2 0.191234 0.729944 0.576464
331 2 0.240745 0.734342 0.705128
42 1 0.147678 0.641454 0.683866
254 1 0.1258 0.608606 0.517636
58 1 0.175475 0.60635 0.968311
301 2 0.21609 0.598819 0.774588
25 1 0.290566 0.582256 0.872517
204 1 0.0607095 0.643199 0.869239
1 1 0.180316 0.719708 0.824957
140 1 0.266054 0.748924 0.94157
61 1 0.0631781 0.511315 0.968509
161 1 0.151081 0.50805 0.842133
329 2 0.0655298 0.559508 0.764698
306 2 0.0441115 0.716667 0.770176
4 1 0.284897 0.846121 0.106821
151 1 0.0165432 0.874155 0.246688
215 1 0.160415 0.829369 0.205073
63 1 0.0882822 0.910941 0.0760069
172 1 0.0393455 0.777647 0.131632
316 2 0.147872 0.961842 0.190934
192 1 0.293433 0.919105 0.241177
340 2 0.0733002 0.926488 0.489683
203 1 0.16864 0.939466 0.309834
136 1 0.31093 0.925684 0.390378
167 1 0.112107 0.810714 0.366218
246 1 0.181627 0.848915 0.49823
221 1 0.261668 0.79031 0.332743
279 1 0.174131 1.0059 0.457771
134 1 0.291803 0.809262 0.614008
360 2 0.124448 0.91435 0.730278
280 1 0.111678 0.803573 0.661896
94 1 0.24552 0.953185 0.714084
2 1 0.114692 0.948948 0.611619
52 1 0.274453 0.940235 0.556225
325 2 0.0636996 0.774557 0.489356
65 1 0.32361 0.815742 0.760787
191 1 0.211979 0.898905 0.987889
285 1 0.111959 0.782073 0.973935
9 1 0.0570471 0.839993 0.819389
74 1 0.203264 0.872578 0.841874
353 2 0.102045 0.929607 0.909938
208 1 0.340979 0.991013 0.984574
288 1 -0.00459866 0.978111 0.858972
60 1 0.602755 0.131063 0.228096
225 1 0.578625 0.0934583 0.0875097
29 1 0.616972 0.240341 0.0841341
281 1 0.445703 0.187922 0.139281
199 1 0.423771 0.0591092 0.100562
85 1 0.474496 0.233948 -0.00231332
327 2 0.342104 0.0274389 0.199155
244 1 0.536822 0.211918 0.342632
43 1 0.493104 0.092601 0.418985
118 1 0.633956 0.146775 0.460345
297 2 0.370039 0.172519 0.406929
253 1 0.398234 0.215822 0.278673
128 1 0.441429 0.204127 0.509036
32 1 0.463485 0.0885596 0.257783
108 1 0.55351 0.154966 0.732048
34 1 0.537726 0.10663 0.570575
17 1 0.420677 0.0872967 0.656183
345 2 0.492396 0.223345 0.618702
200 1 0.629329 0.237348 0.574449
56 1 0.589979 -0.00487896 0.699896
284 1 0.478289 0.0809073 0.970666
95 1 0.64032 0.141091 0.939457
57 1 0.498899 0.177461 0.866063
18 1 0.593425 0.0361582 0.847885
71 1 0.455796 0.0399597 0.782424
33 1 0.329992 0.115679 0.877353
275 1 0.399511 0.188206 0.76519
39 1 0.567175 0.381293 0.0670391
309 2 0.440312 0.475779 0.0817629
220 1 0.541197 0.292518 0.208595
335 2 0.455244 0.327119 0.100792
79 1 0.386662 0.374865 0.00961981
137 1 0.436706 0.425619 0.210072
302 2 0.668273 0.353594 0.125027
242 1 0.644697 0.418373 0.233445
75 1 0.406381 0.300753 0.399835
339 2 0.466693 0.331004 0.287363
46 1 0.554645 0.297781 0.455094
263 1 0.41329 0.443832 0.369259
195 1 0.553626 0.412363 0.346517
342 2 0.522486 0.421095 0.476479
355 2 0.651857 0.493392 0.331233
212 1 0.471262 0.347513 0.56707
36 1 0.372122 0.44587 0.513989
144 1 0.529439 0.483517 0.599104
320 2 0.570854 0.348194 0.635825
130 1 0.475164 0.305468 0.720354
68 1 0.652078 0.386882 0.545931
99 1 0.50506 0.329372 0.87182
233 1 0.410591 0.456452 0.809491
276 1 0.636113 0.249089 0.835546
352 2 0.589388 0.282983 0.976072
337 2 0.371017 0.347208 0.797408
180 1 0.618843 0.40927 0.921162
83 1 0.607668 0.385643 0.754756