ITEM: TIMESTEP
0
ITEM: NUMBER OF ATOMS
360
ITEM: BOX BOUNDS pp pp pp
0.0000000000000000e+00 6.6943295008216896e+00
0.0000000000000000e+00 6.6943295008216896e+00
0.0000000000000000e+00 6.6943295008216896e+00
ITEM: ATOMS id type xs ys zs
205 1 0.149585 0.137155 0.129886
320 2 0.239766 0.0425037 0.0792093
124 1 0.0182233 0.00727951 0.130142
222 1 0.265874 0.0570473 0.201667
246 1 0.273706 0.219445 0.204458
38 1 0.321848 0.140886 0.078268
104 1 0.0148816 0.180506 0.228497
24 1 0.173101 0.171446 0.340442
234 1 0.242649 0.0216502 0.37999
325 2 0.132733 0.0724998 0.434238
343 2 0.288905 0.120485 0.311324
286 1 0.277117 0.153869 0.443929
194 1 0.121589 0.0484113 0.253154
46 1 0.0108706 0.106412 0.382766
44 1 0.0769543 0.118963 0.634329
212 1 0.206408 0.0445289 0.537186
54 1 0.216423 0.0869529 0.687457
304 2 0.249243 0.153523 0.581634
77 1 0.332594 0.202933 0.685026
260 1 0.0378991 0.025779 0.517234
354 2 0.125897 0.159237 0.7379
47 1 0.121682 0.177853 0.50574
273 1 0.183042 0.235517 0.66274
176 1 0.0887183 0.017617 0.749051
239 1 0.094555 0.120888 0.854938
148 1 0.258125 0.0628145 0.83224
309 2 0.00298538 0.0538051 0.909803
274 1 0.228285 0.146748 0.955494
219 1 0.216762 0.223352 0.819606
352 2 0.153417 0.0137663 0.882905
114 1 0.0911918 0.215288 0.970403
7 1 0.0960422 0.0589936 0.988846
276 1 0.133191 0.282719 0.226118
287 1 0.0384322 0.313498 0.112277
248 1 0.19447 0.265877 0.0771876
78 1 0.251227 0.432746 0.0726275
351 2 0.141568 0.375762 0.053631
74 1 0.131748 0.425575 0.177195
229 1 0.269189 0.413683 0.239576
17 1 0.0171667 0.457764 0.0682835
315 2 0.222647 0.461257 0.360711
119 1 0.124464 0.386833 0.342659
147 1 0.245416 0.431623 0.498295
85 1 0.273008 0.293202 0.343414
133 1 0.0270013 0.481432 0.261418
336 2 0.162667 0.273352 0.437652
111 1 0.0385658 0.262112 0.385173
140 1 0.093154 0.351855 0.495157
184 1 0.308954 0.352222 0.668908
164 1 0.244066 0.270224 0.527728
183 1 0.155863 0.387458 0.626347
80 1 0.0320964 0.460158 0.583244
270 1 0.0403852 0.285779 0.651353
94 1 0.170976 0.338087 0.921838
167 1 0.297096 0.457432 0.917076
34 1 0.186858 0.400625 0.781699
326 2 0.0955708 0.419835 0.866317
26 1 0.0727223 0.267891 0.807443
269 1 0.0284836 0.413259 0.753031
5 1 0.326379 0.278086 0.991007
134 1 0.144329 0.480282 0.979384
252 1 0.316864 0.321155 0.845555
152 1 0.281539 0.605462 0.113298
331 2 0.201886 0.663429 0.190751
266 1 0.103573 0.567166 0.127594
161 1 0.173185 0.73608 0.0888364
120 1 0.314525 0.715706 0.0162753
311 2 0.047307 0.695849 0.0665941
218 1 0.0861587 0.691836 0.217677
206 1 0.314207 0.72124 0.196207
328 2 0.220056 0.512456 0.17293
284 1 0.232506 0.690027 0.329858
231 1 0.109411 0.662296 0.412391
255 1 0.252698 0.567487 0.429453
172 1 0.316217 0.568778 0.278832
170 1 0.164803 0.548628 0.280675
318 2 0.0322324 0.615902 0.314272
295 2 0.325388 0.684127 0.426357
60 1 0.108839 0.504498 0.462377
319 2 0.266049 0.64604 0.661525
41 1 0.17343 0.612042 0.562695
25 1 0.0224129 0.610097 0.585686
193 1 0.131293 0.525566 0.683923
137 1 0.284729 0.508599 0.627216
171 1 0.331907 0.637888 0.553826
353 2 0.100579 0.676889 0.861344
275 1 0.134518 0.536083 0.831701
50 1 0.182743 0.667178 0.757952
166 1 0.280994 0.613979 0.919827
217 1 0.136356 0.63414 0.985095
185 1 0.0199737 0.626905 0.753413
101 1 0.284067 0.545642 0.773475
121 1 0.326433 0.704 0.79182
1 1 0.201653 0.745452 0.919108
342 2 0.0294376 0.553371 0.976432
355 2 0.011953 0.936687 0.017955
126 1 0.177791 0.942679 0.14912
31 1 0.189564 0.81098 0.228163
141 1 0.0534697 0.849334 0.122662
195 1 0.276379 0.844998 0.0875534
178 1 0.152142 0.898991 0.000977283
155 1 0.126986 0.809548 0.365645
88 1 0.284918 0.861648 0.34864
187 1 0.0918956 0.9592 0.38
11 1 0.0332815 0.86973 0.262622
313 2 0.227874 0.947537 0.271076
254 1 0.00086571 0.851794 0.44873
278 1 0.233973 0.758199 0.477838
18 1 0.26063 0.92007 0.628304
265 1 0.128187 0.879317 0.689981
247 1 0.00733606 0.886282 0.596038
3 1 0.154843 0.891547 0.516102
175 1 0.218295 0.758665 0.648923
128 1 0.0893632 0.754471 0.527671
232 1 0.0615874 0.751031 0.67794
298 2 0.123811 0.992458 0.620614
285 1 0.0620846 0.786104 0.819767
226 1 0.17656 0.887265 0.84897
174 1 0.0533827 0.788296 0.972677
123 1 0.0343792 0.940825 0.882811
330 2 0.183547 0.793516 0.767815
271 1 0.302686 0.854799 0.761499
207 1 0.280156 0.987197 0.962682
32 1 0.324372 0.838861 0.931021
349 2 0.203853 0.974439 0.760668
299 2 0.43974 0.096383 0.0660466
228 1 0.588015 0.100712 0.12595
116 1 0.430376 0.104232 0.19597
97 1 0.453791 0.218753 0.066003
360 2 0.402444 0.233904 0.196743
253 1 0.527007 0.227845 0.235846
37 1 0.528366 0.0821451 0.306611
45 1 0.588336 0.111816 0.448036
308 2 0.623207 0.171497 0.343164
168 1 0.519822 0.244486 0.404344
66 1 0.405161 0.175852 0.336317
307 2 0.366536 0.0747259 0.404762
256 1 0.432921 0.150739 0.49408
40 1 0.47015 0.00887198 0.424007
332 2 0.55524 0.16466 0.574183
96 1 0.658532 0.108327 0.723143
49 1 0.484193 0.141519 0.669975
333 2 0.620674 0.0256352 0.627912
200 1 0.513003 0.0326888 0.569317
112 1 0.349372 0.0851885 0.596295
281 1 0.365241 0.0175926 0.722173
346 2 0.354806 0.229485 0.559045
16 1 0.593119 0.243759 0.691514
117 1 0.401923 0.0730324 0.950228
198 1 0.546824 0.122416 0.982748
157 1 0.527839 0.153071 0.815336
301 2 0.443729 0.0551174 0.809496
82 1 0.36041 0.169452 0.831021
30 1 0.536264 0.00257532 0.886053
150 1 0.64893 0.401198 0.0634832
356 2 0.542028 0.351508 0.0253169
240 1 0.519752 0.387228 0.146316
344 2 0.624427 0.346267 0.224665
189 1 0.352047 0.334095 0.122965
224 1 0.636594 0.489757 0.204088
251 1 0.378824 0.479078 0.132584
272 1 0.430073 0.412928 0.00770567
92 1 0.600046 0.256403 0.111414
36 1 0.653943 0.417805 0.471056
238 1 0.379251 0.289675 0.437365
28 1 0.546321 0.378912 0.315263
158 1 0.345753 0.435307 0.386795
35 1 0.504725 0.477191 0.456733
277 1 0.405038 0.338895 0.272183
233 1 0.544957 0.381259 0.693792
357 2 0.544535 0.39218 0.546972
267 1 0.39637 0.425265 0.555834
244 1 0.472231 0.288278 0.58492
48 1 0.398054 0.453339 0.718846
262 1 0.631923 0.286874 0.549181
153 1 0.451701 0.274491 0.749224
42 1 0.587761 0.324532 0.826985
216 1 0.574289 0.460068 0.93894
76 1 0.456098 0.399231 0.852877
160 1 0.641714 0.280813 0.966913
127 1 0.467332 0.266308 0.921008
339 2 0.564052 0.455014 0.819186
181 1 0.560887 0.631838 0.238072
8 1 0.647332 0.626897 0.10472
245 1 0.527134 0.52503 0.0824546
4 1 0.439544 0.653295 0.134509
107 1 0.560237 0.742668 0.0496264
259 1 0.467951 0.517894 0.242553
71 1 0.406556 0.567364 0.00319916
154 1 0.462378 0.61609 0.381933
87 1 0.616292 0.538352 0.365381
340 2 0.364779 0.537032 0.488586
202 1 0.373027 0.740235 0.32649
201 1 0.438105 0.728791 0.475673
86 1 0.546308 0.742523 0.357481
292 2 0.414219 0.635422 0.260855
23 1 0.453848 0.562482 0.579049
29 1 0.501713 0.722554 0.626189
57 1 0.405635 0.617673 0.707872
225 1 0.543332 0.539408 0.704175
300 2 0.606468 0.529696 0.567417
9 1 0.663498 0.637256 0.665961
316 2 0.388443 0.740888 0.690501
136 1 0.56304 0.633629 0.502101
39 1 0.419351 0.725575 0.914088
151 1 0.431388 0.555207 0.844517
63 1 0.546959 0.608695 0.959186
338 2 0.567796 0.734748 0.89586
169 1 0.497539 0.711974 0.781042
179 1 0.623116 0.569538 0.838192
122 1 0.642168 0.715087 0.791428
130 1 0.421473 0.822345 0.0741556
214 1 0.493684 0.774539 0.208528
288 1 0.607747 0.866326 0.122479
81 1 0.343791 0.868807 0.219383
280 1 0.49503 0.955871 0.200547
51 1 0.509128 0.984811 0.0437487
290 2 0.624918 0.985276 0.178906
163 1 0.361368 0.987612 0.0966573
89 1 0.614339 0.948282 0.424344
142 1 0.608107 0.886774 0.278546
100 1 0.461031 0.874324 0.357674
118 1 0.369991 0.986264 0.303725
348 2 0.36647 0.833401 0.452237
14 1 0.34444 0.960092 0.489172
79 1 0.604191 0.79135 0.494233
203 1 0.442794 0.865684 0.699911
68 1 0.487862 0.885946 0.515831
95 1 0.356482 0.802864 0.591007
324 2 0.612674 0.76132 0.654748
145 1 0.590708 0.892896 0.623398
305 2 0.404911 0.952878 0.612731
73 1 0.543446 0.992262 0.739785
91 1 0.387878 0.947393 0.853288
138 1 0.488932 0.856595 0.945535
208 1 0.637937 0.854701 0.949039
335 2 0.414054 0.829017 0.813874
83 1 0.553727 0.853027 0.808564
296 2 0.399652 0.936015 0.985964
129 1 0.872635 0.211423 0.160868
268 1 0.690038 0.133959 0.0168053
310 2 0.739979 0.159728 0.139623
209 1 0.995657 0.149791 0.0677969
221 1 0.81894 0.037787 0.123169
323 2 0.923874 0.0811026 0.187582
125 1 0.921705 0.0261818 0.00720503
242 1 0.839394 0.14998 0.0107194
103 1 0.685295 0.222118 0.244482
70 1 0.737557 0.136621 0.412385
235 1 0.85417 0.109805 0.283663
190 1 0.897247 0.192668 0.40146
237 1 0.966414 0.00136728 0.275882
58 1 0.69262 0.0575738 0.256954
43 1 0.740199 0.239144 0.673168
105 1 0.964641 0.0179112 0.655323
236 1 0.943703 0.136437 0.542244
213 1 0.815671 0.211638 0.526433
135 1 0.843877 0.114457 0.684227
27 1 0.795349 0.0454953 0.531866
264 1 0.679142 0.142566 0.565876
21 1 0.97558 0.167994 0.740519
312 2 0.674573 0.0283808 0.508737
358 2 0.748627 0.222134 0.949069
177 1 0.680217 0.117707 0.868554
282 1 0.909245 0.0416162 0.814887
55 1 0.805173 0.191324 0.827706
186 1 0.802675 0.0302531 0.922748
303 2 0.776101 0.0511567 0.799526
249 1 0.950768 0.179123 0.901552
350 2 0.677199 0.221452 0.797631
99 1 0.749018 0.268567 0.0841777
90 1 0.75886 0.398339 0.181225
108 1 0.890429 0.346654 0.102659
341 2 0.782188 0.390012 0.0527783
65 1 0.874503 0.464525 0.00285741
359 2 0.920661 0.251615 0.0369345
327 2 0.923062 0.310342 0.365379
64 1 0.821427 0.344762 0.426496
230 1 0.723786 0.415422 0.328947
192 1 0.823743 0.265167 0.294304
162 1 0.880559 0.437456 0.291278
196 1 0.976335 0.426981 0.418045
84 1 0.671669 0.28766 0.382612
199 1 0.975434 0.329724 0.253095
191 1 0.815395 0.388682 0.69733
182 1 0.949788 0.297082 0.511582
306 2 0.940499 0.393007 0.652596
93 1 0.878979 0.436241 0.554324
321 2 0.794678 0.326614 0.588205
317 2 0.672194 0.342588 0.698665
149 1 0.681711 0.426974 0.620467
67 1 0.896951 0.263531 0.648485
109 1 0.840259 0.312076 0.958148
13 1 0.740202 0.326881 0.826989
188 1 0.74112 0.428149 0.9436
156 1 0.908775 0.308899 0.796513
279 1 0.844889 0.45824 0.836241
61 1 0.678642 0.451017 0.764394
139 1 0.991432 0.347212 0.954769
12 1 0.984673 0.492437 0.883934
132 1 0.934025 0.614361 0.0496759
113 1 0.948927 0.739931 0.164147
102 1 0.801564 0.665106 0.129069
2 1 0.889966 0.516833 0.15899
6 1 0.749877 0.526776 0.0839453
302 2 0.99526 0.597743 0.186321
75 1 0.667532 0.745465 0.195012
180 1 0.813905 0.546332 0.405832
146 1 0.907619 0.608684 0.290236
283 1 0.980757 0.581201 0.437754
56 1 0.870284 0.696316 0.441617
143 1 0.985973 0.739994 0.324879
59 1 0.706623 0.666279 0.402579
10 1 0.806768 0.734296 0.287692
345 2 0.991004 0.70489 0.466957
261 1 0.758319 0.576952 0.251583
241 1 0.87111 0.601379 0.563896
19 1 0.774039 0.534812 0.691927
250 1 0.80482 0.685382 0.687534
347 2 0.92139 0.657933 0.663026
257 1 0.717839 0.563039 0.529138
197 1 0.755572 0.734138 0.537738
215 1 0.93593 0.513299 0.692513
69 1 0.764056 0.579987 0.89548
223 1 0.876359 0.624529 0.801555
297 2 0.889034 0.570533 0.928102
227 1 0.786373 0.738948 0.828083
110 1 0.986065 0.654055 0.907617
329 2 0.725229 0.627686 0.779833
22 1 0.842706 0.704502 0.967408
131 1 0.679225 0.686143 0.955347
293 2 0.674647 0.535527 0.982416
314 2 0.831737 0.794503 0.160436
243 1 0.721252 0.792893 0.056262
337 2 0.817241 0.903309 0.0614952
204 1 0.909238 0.894869 0.171201
72 1 0.754161 0.886975 0.209923
263 1 0.69562 0.974489 0.0596885
98 1 0.924886 0.826296 0.0376446
322 2 0.835492 0.985894 0.247493
159 1 0.890538 0.868371 0.333206
20 1 0.735301 0.843934 0.372771
165 1 0.862516 0.836679 0.485307
52 1 0.906909 0.989927 0.417464
173 1 0.758994 0.98678 0.371363
291 2 0.898068 0.967042 0.56441
220 1 0.731354 0.988382 0.673439
53 1 0.717441 0.820483 0.702293
106 1 0.851055 0.86641 0.644875
258 1 0.722054 0.908862 0.536563
294 2 0.844796 0.974247 0.712249
62 1 0.944732 0.752441 0.577123
289 2 0.703557 0.844012 0.836949
15 1 0.935163 0.821847 0.890167
144 1 0.822686 0.892368 0.798756
211 1 0.795914 0.873341 0.943851
334 2 0.906211 0.949231 0.900054
210 1 0.673225 0.960946 0.842471
33 1 0.984109 0.905849 0.750046
115 1 0.917056 0.77029 0.751769
ITEM: TIMESTEP
100000
ITEM: NUMBER OF ATOMS
360
ITEM: BOX BOUNDS pp pp pp
0.0000000000000000e+00 6.6943295008216896e+00
0.0000000000000000e+00 6.6943295008216896e+00
0.0000000000000000e+00 6.6943295008216896e+00
ITEM: ATOMS id type xs ys zs
234 1 0.211955 0.208457 0.0188861
116 1 0.220394 0.100268 0.185233
351 2 0.144747 0.115203 0.0853471
163 1 0.0814291 0.193665 0.18123
274 1 0.252616 0.0611497 0.0390566
249 1 0.0505657 0.202547 0.0319477
126 1 0.00524142 0.0758948 0.104981
85 1 0.207736 0.203726 0.454997
118 1 0.254156 0.0789976 0.336288
305 2 0.274704 0.0848073 0.458122
286 1 0.108542 0.133178 0.378171
343 2 0.180414 0.16647 0.286456
212 1 0.0508494 0.0443768 0.246138
66 1 0.288686 0.234027 0.325374
184 1 0.237612 0.0859281 0.667555
24 1 0.0818831 0.130265 0.628562
349 2 0.176971 0.202241 0.585388
238 1 0.30443 0.200996 0.580284
306 2 0.0864991 0.163264 0.502224
164 1 0.171444 0.0487698 0.511278
295 2 0.283777 0.0126038 0.566632
326 2 0.247713 0.0781256 0.901835
273 1 0.156893 0.0938633 0.811631
270 1 0.0536338 0.209959 0.764833
219 1 0.293089 0.196219 0.818322
355 2 0.0269241 0.126407 0.87438
139 1 0.155335 0.239116 0.881914
105 1 0.304561 0.0420089 0.799242
114 1 0.124401 0.0809104 0.961232
172 1 0.274475 0.468667 0.175366
17 1 0.153052 0.397827 0.222556
38 1 0.127497 0.34233 0.0733973
5 1 0.285166 0.349485 0.0757358
302 2 0.0812011 0.458313 0.127907
161 1 0.211724 0.477108 0.043243
189 1 0.215598 0.257015 0.191905
192 1 0.0111201 0.336714 0.182041
110 1 0.038259 0.472887 0.00642919
74 1 0.0693721 0.463525 0.360043
119 1 0.214726 0.360473 0.376245
140 1 0.0979053 0.301463 0.469316
276 1 0.106601 0.274724 0.312623
193 1 0.297117 0.440743 0.475161
357 2 0.268774 0.356294 0.258452
60 1 0.144185 0.471666 0.505899
47 1 0.222549 0.341734 0.554577
319 2 0.204973 0.374783 0.673138
101 1 0.305549 0.449438 0.658363
185 1 0.0884108 0.431564 0.6487
269 1 0.0865837 0.291133 0.612242
34 1 0.199984 0.250282 0.70142
94 1 0.114751 0.349218 0.795488
252 1 0.264442 0.366042 0.802301
342 2 0.0952937 0.460076 0.882497
134 1 0.175618 0.388057 0.929134
341 2 0.0454562 0.352669 0.964826
167 1 0.329809 0.47619 0.945023
92 1 0.320093 0.301271 0.932679
275 1 0.179687 0.490758 0.753232
202 1 0.203664 0.69144 0.180046
120 1 0.298952 0.607044 0.0881894
113 1 0.0426621 0.688289 0.185528
31 1 0.157396 0.618919 0.0549226
170 1 0.148507 0.548807 0.190508
259 1 0.325882 0.605459 0.239715
133 1 0.000294697 0.52821 0.233997
132 1 0.000834236 0.613802 0.0711519
155 1 0.250943 0.702522 0.344198
218 1 0.0760203 0.743956 0.418587
266 1 0.111786 0.620336 0.319525
231 1 0.209057 0.610467 0.458569
283 1 0.0467137 0.588946 0.46145
331 2 0.12988 0.738118 0.283184
246 1 0.208355 0.501137 0.338832
25 1 0.142626 0.579409 0.610293
345 2 0.113083 0.690253 0.544633
353 2 0.273915 0.573865 0.704705
347 2 0.0553444 0.549861 0.701006
3 1 0.0339503 0.702276 0.650784
175 1 0.282966 0.660759 0.594419
315 2 0.252637 0.521349 0.564851
174 1 0.0273068 0.696269 0.947147
152 1 0.191834 0.545821 0.906919
285 1 0.0392241 0.568146 0.822666
297 2 0.0689623 0.580776 0.947644
217 1 0.176924 0.710047 0.899332
127 1 0.326688 0.511242 0.805822
121 1 0.326255 0.684517 0.777246
78 1 0.319788 0.632255 0.928958
166 1 0.172314 0.652691 0.750185
178 1 0.127357 0.984102 0.104757
205 1 -0.00751897 0.929767 0.0248457
237 1 0.140224 0.779221 0.0427016
284 1 0.118549 0.846024 0.193999
348 2 0.266358 0.83064 0.119714
195 1 0.242902 0.905959 0.00621506
206 1 0.302564 0.956838 0.158063
32 1 0.287107 0.76201 0.00419138
88 1 0.188172 0.963164 0.256223
81 1 0.280933 0.835749 0.255014
307 2 0.156108 0.886207 0.486375
141 1 0.153594 0.846024 0.350129
255 1 0.227746 0.768261 0.480036
300 2 0.321287 0.949372 0.313363
222 1 0.0823211 0.968882 0.417557
311 2 0.0395323 0.900135 0.297292
187 1 0.2466 0.951641 0.435003
265 1 0.207675 0.909365 0.605631
44 1 0.0517027 0.976188 0.598426
334 2 0.102234 0.840968 0.70311
128 1 0.0708038 0.821474 0.550145
18 1 0.317793 0.819953 0.678817
312 2 0.321982 0.776803 0.560967
304 2 0.233315 0.929254 0.724039
33 1 0.105979 0.967114 0.740834
50 1 0.18145 0.76001 0.6397
298 2 0.23874 0.818197 0.897513
1 1 0.190505 0.816545 0.783974
125 1 0.0339093 0.988859 0.878991
123 1 0.0963615 0.835395 0.908288
7 1 0.200553 0.959535 0.873037
320 2 0.114718 0.932494 0.984527
271 1 0.329334 0.882124 0.81109
15 1 0.0306812 0.749952 0.794665
294 2 0.0260321 0.881988 0.798441
103 1 0.563613 0.0887199 0.0605611
228 1 0.447131 0.225549 0.0376367
51 1 0.40975 0.0578598 0.0814733
214 1 0.531152 0.0278549 0.19923
290 2 0.58991 0.223158 0.111334
100 1 0.639082 0.123812 0.183561
280 1 0.480066 0.18013 0.190263
117 1 0.327008 0.192996 0.117787
207 1 0.369922 0.07409 0.233272
95 1 0.547249 0.227097 0.430433
360 2 0.399106 0.19364 0.291044
256 1 0.510938 0.117147 0.331801
145 1 0.406517 0.16832 0.429641
332 2 0.532673 0.085641 0.456461
40 1 0.656475 0.119073 0.380457
37 1 0.59483 0.245264 0.278219
278 1 0.39937 0.0293191 0.402199
200 1 0.553125 0.139503 0.607377
16 1 0.447843 0.229067 0.566939
77 1 0.392195 0.0833715 0.545556
148 1 0.385396 0.148225 0.701302
352 2 0.467266 0.0518349 0.640974
333 2 0.628486 0.0270151 0.566903
83 1 0.573041 0.00592471 0.693484
350 2 0.562223 0.165405 0.93382
301 2 0.4175 0.108475 0.835506
198 1 0.492336 0.0484348 0.935899
82 1 0.348485 0.146398 0.944571
55 1 0.619884 0.225761 0.844701
49 1 0.521171 0.140832 0.766628
30 1 0.637095 0.0670369 0.890859
153 1 0.463095 0.244716 0.876872
229 1 0.43062 0.474119 0.177578
28 1 0.548585 0.355379 0.145002
97 1 0.38884 0.321698 0.195606
61 1 0.584836 0.461532 0.0191252
328 2 0.350442 0.464351 0.0739169
272 1 0.435023 0.375799 0.016575
356 2 0.661554 0.345858 0.0560711
240 1 0.663941 0.396553 0.24424
149 1 0.599106 0.406198 0.398533
168 1 0.465701 0.33088 0.34401
41 1 0.331371 0.293599 0.464518
277 1 0.360226 0.428639 0.32519
346 2 0.460622 0.302655 0.47151
147 1 0.4567 0.460956 0.442235
340 2 0.550914 0.454887 0.265493
137 1 0.415564 0.380019 0.57727
35 1 0.588224 0.345161 0.548934
183 1 0.350432 0.297811 0.692097
87 1 0.608177 0.40531 0.693466
233 1 0.461644 0.445304 0.723413
36 1 0.532054 0.480068 0.581537
267 1 0.518796 0.289491 0.72212
299 2 0.406188 0.363133 0.859993
157 1 0.565404 0.302166 0.972379
42 1 0.547904 0.397121 0.843458
4 1 0.460348 0.623078 0.159431
245 1 0.576478 0.531815 0.154939
63 1 0.587206 0.695207 0.0852336
130 1 0.35139 0.750522 0.158441
293 2 0.661748 0.573454 0.0402113
39 1 0.439298 0.722099 0.0343482
71 1 0.446833 0.53264 0.0294978
181 1 0.570748 0.680782 0.249476
136 1 0.594917 0.55597 0.456317
158 1 0.351663 0.568761 0.385693
251 1 0.480514 0.555891 0.310789
59 1 0.551506 0.691915 0.405617
316 2 0.472103 0.599926 0.446514
201 1 0.39827 0.710498 0.47603
224 1 0.643585 0.547304 0.297441
86 1 0.41554 0.719734 0.300228
257 1 0.553014 0.570963 0.71018
48 1 0.524404 0.648083 0.556078
339 2 0.657572 0.518843 0.661487
171 1 0.3866 0.56539 0.542023
57 1 0.399924 0.578227 0.688243
23 1 0.597684 0.743763 0.67131
76 1 0.42825 0.71843 0.636539
329 2 0.626523 0.729551 0.513678
179 1 0.573629 0.61392 0.958161
151 1 0.483834 0.681245 0.77618
225 1 0.640139 0.662508 0.822125
160 1 0.464416 0.543057 0.870165
69 1 0.653739 0.508858 0.804611
107 1 0.510403 0.829677 0.167115
296 2 0.389793 0.876319 0.184711
288 1 0.557355 0.934439 0.0613709
226 1 0.412509 0.882137 0.0592411
289 2 0.547258 0.805231 0.0439717
72 1 0.634145 0.923322 0.199319
14 1 0.436309 0.926329 0.284969
73 1 0.474882 0.885495 0.425986
190 1 0.627994 0.848571 0.447554
79 1 0.559673 0.822326 0.308589
142 1 0.58801 0.974549 0.355059
154 1 0.337318 0.834639 0.392888
112 1 0.510735 0.98005 0.536326
203 1 0.470011 0.894326 0.656237
54 1 0.355637 0.988933 0.671115
89 1 0.521221 0.804152 0.541003
68 1 0.354038 0.899816 0.546208
53 1 0.627439 0.891363 0.599354
330 2 0.355894 0.860657 0.95331
91 1 0.640085 0.917203 0.913955
138 1 0.486702 0.890168 0.930222
169 1 0.597321 0.762217 0.923605
122 1 0.519493 0.826902 0.8068
29 1 0.402405 0.762258 0.892345
324 2 0.408922 0.795642 0.760593
335 2 0.563981 0.974663 0.82902
281 1 0.443918 0.984421 0.799675
176 1 0.344924 0.992705 0.93525
287 1 0.928108 0.209966 0.143837
159 1 0.86958 0.0588437 0.192834
58 1 0.781119 0.146314 0.102897
221 1 0.862552 0.0340583 0.037347
263 1 0.69499 0.02004 0.0471467
310 2 0.734828 0.0348533 0.161732
235 1 0.839577 0.0679632 0.373695
322 2 0.949103 0.00268178 0.354948
308 2 0.755255 0.16455 0.443411
45 1 0.857353 0.229409 0.40764
84 1 0.782629 0.185105 0.275482
104 1 0.967927 0.160871 0.290609
46 1 0.970058 0.115009 0.4616
75 1 0.723152 0.00500405 0.284022
262 1 0.704292 0.00213582 0.450879
327 2 1.01081 0.235278 0.394597
325 2 0.780086 0.141482 0.642891
220 1 0.833773 0.0884008 0.74114
244 1 0.678217 0.147938 0.533684
27 1 0.834761 0.0829651 0.540294
236 1 0.930627 0.191642 0.644755
354 2 0.9541 0.0728301 0.591568
21 1 0.806545 0.248265 0.736134
70 1 0.731327 0.0171225 0.630877
43 1 0.66149 0.252928 0.655293
213 1 0.804131 0.245608 0.574122
358 2 0.767499 0.109355 0.976841
359 2 0.908778 0.189975 0.785405
209 1 0.898722 0.0828415 0.880571
177 1 0.761393 0.180543 0.875626
314 2 0.985389 0.0676649 0.982936
129 1 0.670491 0.188734 1.01114
268 1 0.890197 0.191976 0.981555
239 1 0.995291 0.0669973 0.754359
264 1 0.6905 0.12527 0.748223
65 1 0.934708 0.463722 0.116941
253 1 0.704802 0.269368 0.151692
216 1 0.728492 0.46105 0.0986065
90 1 0.839092 0.348273 0.170895
199 1 0.944668 0.33688 0.0262525
99 1 0.780428 0.290614 0.0203551
2 1 0.801245 0.490576 0.234287
336 2 0.930915 0.425995 0.248242
182 1 0.789078 0.337481 0.31858
64 1 0.73706 0.466034 0.375899
248 1 0.954638 0.352312 0.349557
80 1 0.820897 0.37193 0.474189
323 2 0.896444 0.258392 0.285836
180 1 0.896111 0.484272 0.383431
230 1 0.703742 0.27544 0.434844
317 2 0.709114 0.318836 0.559589
67 1 0.896763 0.371723 0.613191
191 1 0.761584 0.383692 0.660619
93 1 0.695968 0.456099 0.548319
215 1 0.956175 0.470071 0.716625
111 1 0.959282 0.27173 0.511042
156 1 0.95056 0.313205 0.748265
196 1 0.992346 0.418513 0.501142
242 1 0.840327 0.31897 0.871353
12 1 0.953694 0.421861 0.875821
109 1 0.812401 0.480335 0.839698
19 1 0.71041 0.357206 0.799443
13 1 0.692485 0.409155 0.938506
108 1 0.843054 0.436532 0.985576
344 2 0.69174 0.280856 0.926261
26 1 0.995828 0.261566 0.89359
321 2 0.8537 0.392411 0.753537
8 1 0.712434 0.612136 0.15753
150 1 0.843932 0.574429 0.0654854
22 1 0.898133 0.651211 0.192596
227 1 0.712573 0.685994 0.000115437
162 1 0.787578 0.622936 0.300646
261 1 0.69997 0.746302 0.355224
146 1 0.950649 0.649974 0.339665
318 2 0.883683 0.61839 0.443264
9 1 0.747273 0.612795 0.450472
143 1 0.839471 0.734496 0.414226
62 1 0.763715 0.723148 0.695667
254 1 0.958739 0.726796 0.510049
197 1 0.834776 0.650268 0.566418
241 1 0.971196 0.57044 0.598187
279 1 0.784939 0.531356 0.681463
232 1 0.894936 0.63472 0.724207
56 1 0.835647 0.505027 0.526245
250 1 0.678379 0.633815 0.600301
313 2 0.90314 0.741329 0.648742
303 2 0.931953 0.696353 0.847823
6 1 0.797058 0.693392 0.849473
188 1 0.73591 0.555028 0.937995
338 2 0.748984 0.596864 0.78773
223 1 0.921026 0.574301 0.928502
98 1 0.874217 0.714463 0.97339
208 1 0.681116 0.82521 0.0634683
211 1 0.854459 0.853327 0.0301045
243 1 0.669173 0.772719 0.200508
204 1 0.794753 0.918648 0.156214
337 2 0.892873 0.827776 0.187285
124 1 0.968697 0.773119 0.0911556
11 1 0.976255 0.935438 0.184363
131 1 0.802971 0.749147 0.122353
102 1 0.809144 0.77593 0.267815
52 1 0.787433 0.873395 0.408339
10 1 0.978493 0.785994 0.267584
173 1 0.862301 0.935611 0.285812
20 1 0.954108 0.844188 0.408506
194 1 0.911477 0.970539 0.471007
292 2 0.680342 0.873145 0.307933
291 2 0.765522 0.931572 0.535944
106 1 0.767712 0.873513 0.667675
260 1 0.983365 0.861556 0.677911
165 1 0.88254 0.851141 0.562487
247 1 0.880598 0.975713 0.646908
258 1 0.74227 0.79152 0.537215
309 2 0.908903 0.96932 0.92638
135 1 0.896379 0.947976 0.802339
210 1 0.764414 0.821043 0.921161
144 1 0.87463 0.812822 0.770546
282 1 0.950727 0.83242 0.899838
115 1 0.670888 0.826829 0.789525
96 1 0.702874 0.972495 0.774746
186 1 0.785034 0.993427 0.90482
ITEM: TIMESTEP
200000
ITEM: NUMBER OF ATOMS
360
ITEM: BOX BOUNDS pp pp pp
0.0000000000000000e+00 6.6943295008216896e+00
0.0000000000000000e+00 6.6943295008216896e+00
0.0000000000000000e+00 6.6943295008216896e+00
ITEM: ATOMS id type xs ys zs
126 1 0.0433039 0.00104478 0.0266784
351 2 0.197338 0.149403 0.177181
287 1 0.0509781 0.163649 0.103929
117 1 0.302142 0.21468 0.223025
290 2 0.299273 0.224268 0.0780875
274 1 0.188645 0.159884 0.0382629
141 1 0.16241 0.0321222 0.124377
311 2 0.0180028 0.031985 0.169063
226 1 0.307466 0.096207 0.124352
178 1 0.0595708 0.121951 0.249297
185 1 0.230115 0.104067 0.467253
235 1 0.00511461 0.0494464 0.432622
66 1 0.207875 0.175486 0.328601
116 1 0.261535 0.0512314 0.26584
276 1 0.08767 0.18155 0.417452
286 1 0.145315 0.0232119 0.374728
307 2 0.136799 0.0170623 0.249538
304 2 0.299872 0.0451215 0.710458
24 1 0.200769 0.0583737 0.614781
354 2 0.254919 0.18177 0.593954
164 1 0.121403 0.228426 0.598714
219 1 0.254069 0.180843 0.719007
273 1 0.116267 0.126586 0.730058
295 2 0.0915289 0.081568 0.524075
105 1 0.278616 0.05266 0.834195
125 1 0.197932 0.181182 0.872444
314 2 0.0528634 0.220264 0.824577
209 1 0.0600745 0.152421 0.940176
205 1 0.12375 0.0275645 0.874971
51 1 0.32601 0.14477 0.973357
114 1 0.0964659 0.294118 0.0453424
189 1 0.200783 0.479744 0.1627
259 1 0.180481 0.440209 0.0170492
302 2 0.12006 0.39399 0.123925
249 1 0.227628 0.321637 0.114498
38 1 0.0473006 0.495583 0.114292
163 1 0.119547 0.255143 0.207637
74 1 0.148584 0.410479 0.398841
152 1 0.201756 0.284107 0.464762
25 1 0.321081 0.391309 0.412692
60 1 0.235803 0.346409 0.290193
343 2 0.130459 0.297628 0.335647
17 1 0.0875371 0.399685 0.254941
196 1 0.0423434 0.322754 0.479946
192 1 0.00582241 0.269903 0.327706
275 1 0.0922151 0.370506 0.636413
269 1 0.243361 0.310051 0.63396
139 1 0.271806 0.463454 0.635302
319 2 0.195441 0.414521 0.53103
283 1 0.0908864 0.487461 0.522336
353 2 0.334868 0.359599 0.551373
34 1 0.134211 0.276351 0.747821
272 1 0.240912 0.462055 0.892715
234 1 0.127305 0.318184 0.884969
134 1 -0.0046695 0.368009 0.771341
7 1 0.256772 0.311146 0.960918
285 1 0.167766 0.434819 0.752908
215 1 0.00677523 0.413299 0.972386
12 1 0.0824777 0.499948 0.875306
167 1 0.29362 0.345771 0.77988
229 1 0.295923 0.600309 0.16485
22 1 0.0249093 0.654496 0.231535
172 1 0.142554 0.613029 0.122519
327 2 0.111346 0.53563 0.236568
5 1 0.246305 0.568241 0.0211136
78 1 0.144297 0.708089 0.00721318
255 1 0.222454 0.661544 0.420414
246 1 0.185608 0.63778 0.263111
170 1 0.109731 0.560035 0.36905
254 1 0.0683727 0.717402 0.367421
50 1 0.247231 0.521528 0.483135
193 1 0.243437 0.505436 0.319279
107 1 0.331078 0.665139 0.30117
231 1 0.0927217 0.647254 0.494275
217 1 0.188547 0.684643 0.727205
166 1 0.111541 0.561359 0.651668
71 1 0.263521 0.625557 0.612779
3 1 0.0345494 0.672144 0.711734
298 2 0.307235 0.703712 0.504183
347 2 0.00419 0.584059 0.587907
313 2 0.0478508 0.716674 0.593894
110 1 0.1881 0.618778 0.886155
297 2 0.107748 0.588062 0.787512
223 1 0.0346739 0.652508 0.878509
161 1 0.276011 0.549387 0.765724
151 1 0.282284 0.745851 0.880424
330 2 0.126146 0.570181 0.989296
237 1 0.12852 0.883164 0.0462428
32 1 0.282653 0.842097 0.0364409
14 1 0.280763 0.934723 0.165684
202 1 0.136549 0.887318 0.217142
130 1 0.0889918 0.762526 0.133032
81 1 0.250649 0.750552 0.155286
195 1 0.246267 0.997382 0.00360932
118 1 0.292931 0.916049 0.351113
88 1 0.226587 0.777993 0.313194
113 1 0.0205378 0.969248 0.290992
68 1 0.265412 0.811861 0.465771
173 1 0.11609 0.861005 0.371791
340 2 0.215711 0.954351 0.46196
296 2 0.120376 0.763869 0.2525
20 1 0.00289513 0.814988 0.261034
222 1 0.100306 0.950935 0.511788
265 1 0.0673678 0.835064 0.674644
54 1 0.215639 0.904834 0.60305
73 1 0.330739 0.785409 0.602127
184 1 0.175604 0.755795 0.59491
1 1 0.230988 0.824692 0.73383
33 1 0.190266 0.972854 0.742964
128 1 0.0593869 0.806066 0.510562
334 2 0.120994 0.872439 0.792398
138 1 0.219453 0.891451 0.893948
123 1 0.0567893 0.891374 0.902156
349 2 0.327216 0.936942 0.835778
29 1 0.130517 0.75468 0.853443
260 1 0.0329337 0.955236 0.761217
280 1 0.521191 0.0906209 0.19576
153 1 0.541344 0.235051 0.0459422
103 1 0.635001 0.205836 0.212013
176 1 0.4707 0.0983146 0.0516756
83 1 0.632929 0.0761891 0.0934425
305 2 0.381634 0.103833 0.221804
204 1 0.66578 0.0398884 0.243257
35 1 0.492886 0.191559 0.44208
360 2 0.661853 0.140117 0.355004
119 1 0.343045 0.246749 0.376064
228 1 0.455911 0.202682 0.290261
137 1 0.62411 0.12543 0.481853
95 1 0.541185 0.0770316 0.351821
145 1 0.362852 0.0917573 0.379094
41 1 0.481831 0.0425978 0.490703
140 1 0.490307 0.171034 0.59672
350 2 0.593693 0.0252926 0.562473
70 1 0.608369 0.0939101 0.673018
352 2 0.609424 0.226271 0.667264
238 1 0.366671 0.0828899 0.589667
271 1 0.410788 0.109479 0.741832
85 1 0.354737 0.220909 0.523413
299 2 0.580009 0.108989 0.969224
281 1 0.465264 0.147214 0.903816
267 1 0.606276 0.221427 0.906171
49 1 0.3448 0.212557 0.838287
200 1 0.597293 0.084111 0.827554
301 2 0.377214 0.0146697 0.972212
16 1 0.532751 0.205297 0.766137
177 1 0.638057 0.33971 0.111727
99 1 0.534747 0.323512 0.23027
356 2 0.575317 0.457777 0.138655
277 1 0.474333 0.390433 0.0844308
61 1 0.597339 0.45593 0.0157874
158 1 0.474465 0.478581 0.202917
357 2 0.341826 0.351964 0.073384
82 1 0.415345 0.258714 0.141837
251 1 0.340361 0.453244 0.143395
256 1 0.601443 0.268478 0.360341
37 1 0.475355 0.340164 0.38221
240 1 0.603473 0.449687 0.265808
136 1 0.558128 0.477553 0.423509
149 1 0.399979 0.499549 0.345324
168 1 0.38422 0.34983 0.260498
191 1 0.524416 0.479855 0.574946
252 1 0.401305 0.407005 0.682099
233 1 0.557419 0.341912 0.65881
101 1 0.460351 0.331456 0.539379
147 1 0.615266 0.282092 0.521285
183 1 0.391871 0.246138 0.68074
230 1 0.662588 0.440273 0.557691
36 1 0.389556 0.461046 0.527378
69 1 0.611079 0.328671 0.810311
42 1 0.445239 0.319005 0.815381
92 1 0.389202 0.465733 0.833051
13 1 0.517217 0.364191 0.927181
97 1 0.361262 0.444291 0.987981