ITEM: TIMESTEP
0
ITEM: NUMBER OF ATOMS
360
ITEM: BOX BOUNDS pp pp pp
0.0000000000000000e+00 6.6943295008216896e+00
0.0000000000000000e+00 6.6943295008216896e+00
0.0000000000000000e+00 6.6943295008216896e+00
ITEM: ATOMS id type xs ys zs
118 1 0.165489 0.0320245 0.0466934
134 1 0.127925 0.138006 0.148088
183 1 0.308798 0.0864113 0.0750645
51 1 0.0176863 0.0898814 0.0408571
44 1 0.26448 0.17466 0.230985
300 2 0.0431698 0.0871071 0.23304
107 1 0.226341 0.00686866 0.189717
341 2 0.217224 0.148602 0.0105994
179 1 0.107506 0.223121 0.00925403
292 2 0.134781 0.168765 0.419065
104 1 0.214094 0.0787578 0.350701
330 2 0.204955 0.223494 0.324847
78 1 0.0601359 0.0924605 0.471322
52 1 0.094838 0.185207 0.291544
178 1 0.28984 0.189392 0.426282
225 1 0.0752981 0.0166989 0.349926
358 2 0.316037 0.0109239 0.307288
355 2 0.314701 0.0905598 0.573336
194 1 0.103336 0.104005 0.627968
287 1 0.235134 0.0412461 0.666446
126 1 0.260458 0.205989 0.60994
33 1 0.206276 0.0883634 0.507604
297 2 0.000114835 0.0158403 0.554271
14 1 0.316719 0.10818 0.849312
48 1 0.149349 0.119431 0.894052
307 2 0.222269 0.035629 0.805038
99 1 0.0926106 0.00488983 0.76713
248 1 0.0457934 0.16119 0.776413
109 1 0.254144 0.246877 0.923415
6 1 0.206376 0.160225 0.750609
250 1 0.0915453 0.443363 0.189478
27 1 0.162292 0.299556 0.227064
321 2 0.134732 0.37029 0.0770511
139 1 0.257221 0.422067 0.114834
336 2 0.311894 0.308006 0.192961
45 1 0.0453562 0.299154 0.132901
256 1 0.225866 0.265815 0.0904722
39 1 0.252909 0.426079 0.265572
148 1 0.0502954 0.409305 0.450467
43 1 0.17638 0.329496 0.372547
110 1 0.0338655 0.367262 0.303762
74 1 0.198485 0.448578 0.468392
13 1 0.132252 0.493766 0.344888
18 1 0.0202325 0.25731 0.398474
218 1 0.103343 0.258516 0.663689
302 2 0.0526037 0.362325 0.566382
231 1 0.206031 0.359737 0.615098
96 1 0.235258 0.489346 0.693257
251 1 0.102233 0.475291 0.602523
120 1 0.120065 0.40474 0.746155
222 1 0.298284 0.319368 0.505652
216 1 0.134603 0.257105 0.508092
177 1 0.0269687 0.34367 0.963176
281 1 0.128236 0.486793 0.879394
312 2 0.233641 0.430673 0.83936
17 1 0.20933 0.380029 0.966436
66 1 0.113203 0.279969 0.85429
353 2 0.0243529 0.489106 0.94649
184 1 0.240229 0.306532 0.765826
339 2 0.0117993 0.298922 0.77492
162 1 0.282981 0.57806 0.0883416
146 1 0.147763 0.651534 0.0905573
279 1 0.279868 0.74096 0.15208
295 2 0.0403436 0.556559 0.132836
352 2 0.174647 0.52044 0.146884
351 2 0.172972 0.695516 0.211168
3 1 0.00719941 0.597132 0.00866821
242 1 0.0694341 0.592378 0.247249
138 1 0.235554 0.581297 0.243428
220 1 0.13602 0.509645 0.0301115
217 1 0.260039 0.73749 0.00249491
223 1 0.286627 0.605173 0.47871
173 1 0.0834714 0.568305 0.474896
115 1 0.178309 0.639021 0.373552
298 2 0.0513854 0.648112 0.373905
303 2 0.261259 0.503277 0.376752
93 1 0.0156244 0.721498 0.470114
349 2 0.25639 0.731954 0.401805
314 2 0.15122 0.68304 0.488003
152 1 0.0848703 0.553916 0.734319
101 1 0.15767 0.627518 0.632635
159 1 0.306071 0.628854 0.628731
344 2 0.0669503 0.710118 0.683371
360 2 0.225262 0.540606 0.573047
36 1 0.00801506 0.627689 0.599291
232 1 0.062221 0.684981 0.820035
147 1 0.217837 0.604713 0.793833
206 1 0.157289 0.627645 0.929859
315 2 0.224092 0.717794 0.864257
129 1 0.0442401 0.738574 0.977872
122 1 0.27823 0.509187 0.948819
254 1 0.0834816 0.890815 0.0266826
154 1 0.111666 0.812518 0.16947
144 1 0.226591 0.874629 0.08007
284 1 0.0710183 0.975771 0.165165
311 2 0.145712 0.773866 0.0468153
2 1 0.316039 0.884273 0.227395
50 1 0.295062 0.865326 0.392674
249 1 0.150094 0.8016 0.427181
273 1 0.162549 0.906799 0.304428
25 1 0.228482 0.770055 0.286888
328 2 0.197685 0.966674 0.417144
64 1 0.00100042 0.859952 0.380493
30 1 0.0815301 0.928079 0.490136
243 1 0.0725179 0.754471 0.300044
285 1 0.244251 0.922329 0.527895
241 1 0.185231 0.884704 0.674443
76 1 0.100294 0.77474 0.568954
258 1 0.0187572 0.901178 0.630946
219 1 0.308014 0.791195 0.68274
72 1 0.24627 0.756446 0.537599
306 2 0.125903 0.973828 0.594
264 1 0.147123 0.797821 0.897151
121 1 0.332385 0.776833 0.856148
67 1 0.263558 0.908411 0.811059
37 1 0.155177 0.955933 0.905744
332 2 0.250092 0.860253 0.935692
347 2 0.136275 0.883803 0.803871
221 1 0.0149726 0.898999 0.894883
205 1 0.289692 0.980854 0.96264
21 1 0.0474444 0.824226 0.751107
123 1 0.184688 0.751711 0.756409
214 1 0.386818 0.215604 0.143259
342 2 0.568614 0.0600555 0.0455673
155 1 0.510515 0.109255 0.166191
316 2 0.629451 0.0315824 0.160037
240 1 0.660987 0.134238 0.0755904
95 1 0.652042 0.112083 0.384708
71 1 0.543318 0.198851 0.303102
156 1 0.495682 0.0798104 0.409612
142 1 0.573371 0.0167895 0.279232
88 1 0.396683 0.135007 0.304762
40 1 0.345527 0.0425554 0.440391
4 1 0.580584 0.134221 0.522144
62 1 0.361889 0.127588 0.69558
77 1 0.511227 0.165995 0.682043
343 2 0.473178 0.0672127 0.619433
82 1 0.413169 0.160559 0.547657
244 1 0.601495 0.0103889 0.648771
112 1 0.4798 0.00113835 0.727524
326 2 0.361191 0.0210509 0.763131
158 1 0.633711 0.106857 0.772926
111 1 0.572196 0.23611 0.834352
83 1 0.476345 0.106511 0.831913
204 1 0.588516 0.0349856 0.916647
46 1 0.385249 0.177101 0.967412
80 1 0.547262 0.172437 0.976921
174 1 0.449681 0.0435147 0.983917
26 1 0.416307 0.245692 0.792122
267 1 0.558543 0.254225 0.122437
208 1 0.549337 0.446098 0.198453
211 1 0.411561 0.392541 0.166267
167 1 0.540752 0.394777 0.0410171
252 1 0.349822 0.323309 0.0264021
296 2 0.365855 0.456651 0.047113
224 1 0.494669 0.372743 0.324292
32 1 0.53474 0.41635 0.46776
329 2 0.618757 0.406667 0.370402
271 1 0.37294 0.41211 0.418797
149 1 0.336547 0.302091 0.312103
239 1 0.61205 0.321803 0.262715
163 1 0.598688 0.266764 0.427221
22 1 0.445412 0.274035 0.435586
108 1 0.397471 0.497134 0.286282
59 1 0.485886 0.452957 0.626641
79 1 0.610654 0.289596 0.696714
41 1 0.529516 0.27846 0.556787
291 2 0.42604 0.362658 0.535783
84 1 0.395746 0.287022 0.631772
106 1 0.352163 0.403969 0.7091
35 1 0.349652 0.48064 0.556121
185 1 0.644728 0.377107 0.576468
55 1 0.482332 0.401648 0.790047
226 1 0.477478 0.308482 0.930638
335 2 0.584504 0.363837 0.873256
63 1 0.635529 0.300153 0.972169
75 1 0.591237 0.490728 0.910254
10 1 0.627842 0.439314 0.763294
201 1 0.437063 0.470755 0.941899
53 1 0.345598 0.370785 0.869058
89 1 0.627841 0.576126 0.220093
270 1 0.638201 0.52613 0.075275
331 2 0.538572 0.561376 0.0138157
151 1 0.448286 0.530258 0.10973
234 1 0.402079 0.647461 0.187815
213 1 0.541596 0.682833 0.129809
98 1 0.401962 0.682649 0.0438936
333 2 0.501878 0.583092 0.211165
305 2 0.485037 0.732529 0.227697
161 1 0.631515 0.736712 0.241914
354 2 0.347074 0.517679 0.183477
94 1 0.552393 0.512567 0.341813
259 1 0.50776 0.659778 0.335865
157 1 0.442222 0.551629 0.44732
171 1 0.558621 0.666382 0.48604
131 1 0.397317 0.708222 0.453712
114 1 0.3417 0.636857 0.336108
207 1 0.664818 0.512024 0.467452
253 1 0.631379 0.524102 0.625406
320 2 0.57959 0.632 0.649454
283 1 0.460097 0.623105 0.608005
348 2 0.389198 0.533891 0.678488
325 2 0.526026 0.525838 0.538187
81 1 0.531213 0.711759 0.743843
299 2 0.378771 0.735311 0.572228
286 1 0.509135 0.552483 0.740702
227 1 0.481046 0.609633 0.889263
266 1 0.333626 0.646012 0.910565
140 1 0.616821 0.660355 0.982905
186 1 0.363825 0.524891 0.818544
215 1 0.635326 0.596177 0.826015
23 1 0.380566 0.672086 0.76117
34 1 0.372676 0.958473 0.0930691
288 1 0.422381 0.809883 0.148647
8 1 0.532702 0.95821 0.135445
57 1 0.63756 0.801965 0.0444785
309 2 0.565699 0.820193 0.154991
278 1 0.664987 0.972394 0.0528747
346 2 0.492912 0.778303 0.0379065
130 1 0.419436 0.98392 0.240856
117 1 0.629924 0.792273 0.398421
260 1 0.477207 0.837342 0.426041
90 1 0.395293 0.780388 0.313957
7 1 0.521793 0.854807 0.277514
58 1 0.60062 0.955998 0.409977
102 1 0.49645 0.775 0.595178
127 1 0.353562 0.943001 0.657161
195 1 0.57972 0.896359 0.542263
323 2 0.492033 0.911563 0.628288
255 1 0.382939 0.857664 0.542546
68 1 0.610892 0.836936 0.697576
203 1 0.65459 0.766302 0.553917
85 1 0.462021 0.985824 0.520646
11 1 0.557206 0.907974 0.836482
191 1 0.410447 0.941804 0.866429
153 1 0.483772 0.764738 0.897412
340 2 0.658182 0.917751 0.921209
198 1 0.640616 0.782412 0.897872
210 1 0.383965 0.843741 0.978893
235 1 0.526701 0.901518 0.99558
269 1 0.431118 0.846388 0.751171
60 1 0.975873 0.171746 0.18186
275 1 0.834774 0.168405 0.125051
282 1 0.905135 0.0290503 0.148538
304 2 0.810861 0.0526195 0.0535158
230 1 0.756293 0.0324311 0.167633
280 1 0.933074 0.245032 0.0306828
182 1 0.672918 0.15381 0.229266
237 1 0.952504 0.120998 0.348732
128 1 0.876379 0.230649 0.437824
197 1 0.808772 0.0829722 0.418028
49 1 0.749482 0.221443 0.35727
38 1 0.830595 0.118173 0.264908
141 1 0.688669 0.0345598 0.534
290 2 0.787303 0.110017 0.569412
47 1 0.849814 0.205316 0.639701
105 1 0.917112 0.115795 0.531289
113 1 0.959033 0.0443507 0.677101
97 1 0.797972 0.0449655 0.691653
334 2 0.971325 0.207609 0.682564
1 1 0.674078 0.160763 0.635565
9 1 0.73733 0.226042 0.511487
202 1 0.986388 0.249828 0.548628
180 1 0.748395 0.211043 0.75077
359 2 0.761504 0.0829415 0.81581
350 2 0.829161 0.219736 0.873171
54 1 0.885979 0.137625 0.785083
274 1 0.873972 0.126577 0.959622
73 1 0.710561 0.173418 0.905277
168 1 0.954152 0.226115 0.876152
61 1 0.750919 0.0262323 0.946867
228 1 0.998206 0.0566148 0.884613
324 2 0.964423 0.38922 0.18772
125 1 0.78504 0.305727 0.197036
189 1 0.850958 0.37455 0.0816718
238 1 0.769172 0.255685 0.0157394
319 2 0.909197 0.275343 0.150297
308 2 0.684689 0.255521 0.143977
172 1 0.673053 0.386633 0.12876
42 1 0.976861 0.45612 0.0849151
143 1 0.901432 0.376463 0.400391
338 2 0.788816 0.359412 0.320163
261 1 0.737231 0.382737 0.438475
5 1 0.711581 0.461767 0.283706
133 1 0.917838 0.273373 0.281368
31 1 0.863514 0.42859 0.256131
196 1 0.774578 0.466541 0.566173
100 1 0.755557 0.393587 0.693794
293 2 0.735297 0.276465 0.627321
119 1 0.873532 0.335172 0.544836
92 1 0.977625 0.355811 0.666614
277 1 0.955128 0.475059 0.553472
310 2 0.873491 0.417321 0.636219
192 1 0.975397 0.413068 0.827478
166 1 0.710824 0.326537 0.849085
233 1 0.868822 0.343136 0.92126
70 1 0.828222 0.444511 0.824545
199 1 0.725891 0.42435 0.974715
165 1 0.866367 0.312233 0.762912
318 2 0.706763 0.496904 0.837537
322 2 0.872066 0.680436 0.197686
345 2 0.939805 0.71311 0.0232323
170 1 0.710106 0.663151 0.12306
164 1 0.861696 0.630355 0.0738571
19 1 0.933018 0.555388 0.202791
56 1 0.995753 0.688899 0.144368
20 1 0.785029 0.51178 0.126697
175 1 0.914682 0.609182 0.462048
327 2 0.813752 0.640577 0.374243
132 1 0.671641 0.636996 0.367123
136 1 0.933135 0.657748 0.314511
137 1 0.979509 0.51452 0.350499
15 1 0.783853 0.741812 0.294997
116 1 0.783356 0.744916 0.447925
86 1 0.8136 0.517097 0.394782
272 1 0.792875 0.595127 0.256167
181 1 0.85047 0.619282 0.623726
263 1 0.926616 0.511041 0.708767
356 2 0.881181 0.70634 0.541039
160 1 0.722051 0.630383 0.534208
268 1 0.685926 0.700485 0.686313
169 1 0.74889 0.556683 0.722662
313 2 0.834009 0.729069 0.719337
24 1 0.942366 0.653712 0.739025
212 1 0.889886 0.67233 0.913044
317 2 0.862762 0.566555 0.833449
29 1 0.756261 0.572079 0.936182
209 1 0.770963 0.677538 0.819148
276 1 0.989871 0.565158 0.858385
28 1 0.770292 0.735441 0.989105
69 1 0.885025 0.501696 0.955633
247 1 0.805299 0.919205 0.0630843
294 2 0.721042 0.796659 0.164101
176 1 0.820955 0.882749 0.227631
257 1 0.968858 0.866946 0.120069
145 1 0.844071 0.774102 0.126924
91 1 0.941958 0.787763 0.245145
200 1 0.667875 0.900112 0.201258
357 2 0.721409 0.849624 0.344363
301 2 0.906799 0.758355 0.395397
262 1 0.733849 0.888619 0.466241
124 1 0.84782 0.877339 0.373353
265 1 0.969717 0.945752 0.269623
188 1 0.938487 0.994543 0.43935
190 1 0.729047 0.989655 0.32205
337 2 0.847351 0.99102 0.296187
193 1 0.792574 0.770522 0.600919
229 1 0.847925 0.968386 0.555306
150 1 0.885116 0.902838 0.700673
65 1 0.726515 0.916045 0.635083
236 1 0.94657 0.761625 0.635151
87 1 0.925915 0.836432 0.512765
103 1 0.755027 0.821391 0.748175
246 1 0.775021 0.858734 0.89824
245 1 0.903877 0.800912 0.818472
12 1 0.911216 0.826118 0.974816
187 1 0.865355 0.985129 0.839406
135 1 0.702095 0.958269 0.798629
289 2 0.990213 0.929893 0.760715
16 1 0.928906 0.973547 0.999833
ITEM: TIMESTEP
300000
ITEM: NUMBER OF ATOMS
360
ITEM: BOX BOUNDS pp pp pp
0.0000000000000000e+00 6.6943295008216896e+00
0.0000000000000000e+00 6.6943295008216896e+00
0.0000000000000000e+00 6.6943295008216896e+00
ITEM: ATOMS id type xs ys zs
168 1 0.208404 0.209687 0.0747246
107 1 0.303995 0.141607 0.224341
280 1 0.0670977 0.145395 0.0582661
284 1 0.207599 0.0488602 0.102858
275 1 0.144995 0.170824 0.208342
7 1 0.0430187 0.0256926 0.128877
252 1 0.345778 0.104721 0.0120869
271 1 0.184664 0.098808 0.34329
164 1 0.0624543 0.125561 0.443643
273 1 0.0198527 0.108994 0.281368
296 2 0.218586 0.229707 0.308964
188 1 0.053763 0.249806 0.316237
225 1 0.177341 0.236405 0.429785
102 1 0.315719 0.0104183 0.309327
155 1 0.326795 0.153511 0.376073
218 1 0.0858162 0.215833 0.583489
292 2 0.0282304 0.101173 0.592626
17 1 0.25917 0.179085 0.672919
48 1 0.116128 0.0924185 0.694781
355 2 0.0785113 0.216894 0.719648
62 1 0.229946 0.0979264 0.50592
83 1 0.194396 0.110837 0.952935
118 1 0.17174 0.178056 0.805644
289 2 0.125646 0.0630477 0.842316
120 1 0.0278279 0.148307 0.825878
66 1 0.0532847 0.0294234 0.952294
341 2 0.320919 0.128478 0.886518
179 1 0.245007 0.0328944 0.781866
69 1 0.0999598 0.243035 0.95021
60 1 0.284539 0.246845 0.939473
177 1 0.16654 0.432989 0.204224
125 1 0.104386 0.330763 0.0969121
149 1 0.265196 0.360878 0.0528301
303 2 0.0469494 0.439334 0.0814096
174 1 0.242479 0.296982 0.199486
343 2 0.110766 0.296058 0.219118
27 1 -0.00201629 0.39838 0.210858
162 1 0.151435 0.469178 0.0283012
256 1 0.30057 0.43044 0.284746
74 1 0.298272 0.31592 0.385528
148 1 0.149433 0.360409 0.348657
231 1 0.254473 0.474523 0.458191
325 2 0.17185 0.358115 0.471397
175 1 0.0981451 0.464375 0.445667
317 2 0.00770631 0.393578 0.368446
18 1 0.0431291 0.312405 0.465492
348 2 0.196678 0.49707 0.333818
312 2 0.240623 0.407146 0.610852
266 1 0.202009 0.456197 0.719182
33 1 0.223023 0.278095 0.561343
248 1 0.109008 0.391404 0.58489
228 1 0.159185 0.312478 0.695158
122 1 0.0454304 0.468812 0.737747
84 1 0.326067 0.337566 0.693497
184 1 -0.00456513 0.328573 0.676317
146 1 0.154238 0.451361 0.869909
322 2 0.184728 0.343622 0.945773
192 1 0.0715964 0.326576 0.814966
139 1 0.243145 0.33679 0.8232
45 1 0.0415179 0.380938 0.96054
352 2 0.0287662 0.475062 0.864824
201 1 0.282972 0.486528 0.93967
42 1 0.100406 0.63799 0.00756466
250 1 0.0610152 0.544653 0.151169
242 1 0.108899 0.691769 0.159482
351 2 0.195053 0.60039 0.121398
270 1 0.264344 0.619613 0.0116981
279 1 0.302758 0.69586 0.159848
151 1 0.288433 0.507879 0.142966
39 1 0.208805 0.596038 0.248283
298 2 0.0641008 0.628063 0.290919
137 1 0.0558416 0.7134 0.458454
349 2 0.184342 0.727356 0.44407
115 1 0.148197 0.602 0.39397
243 1 0.265454 0.707669 0.334963
259 1 0.323559 0.561382 0.348942
258 1 0.0658882 0.500445 0.297744
301 2 0.0662681 0.591426 0.512809
35 1 0.177299 0.532132 0.580673
147 1 0.159842 0.711678 0.579084
36 1 0.119293 0.601519 0.708681
223 1 0.274216 0.655975 0.675873
114 1 0.27471 0.62423 0.486842
152 1 0.0151658 0.68555 0.603465
357 2 0.172676 0.564095 0.938212
206 1 0.234578 0.577582 0.81172
220 1 0.0673472 0.597855 0.847262
328 2 0.170621 0.687751 0.782691
210 1 0.193824 0.718594 0.915187
112 1 0.314485 0.722085 0.816743
264 1 0.0438047 0.753349 0.878127
154 1 0.211499 0.769749 0.0572721
25 1 0.254176 0.888461 0.156324
2 1 0.157911 0.928552 0.0245729
30 1 0.11748 0.853169 0.166693
311 2 0.20226 0.771593 0.206134
254 1 0.0602351 0.781807 0.0464587
304 2 0.297575 0.949835 0.0349215
104 1 0.13866 0.98676 0.240839
123 1 0.11598 0.847273 0.44277
314 2 0.112964 0.875956 0.314882
50 1 0.236335 0.861574 0.310261
46 1 0.221186 0.958496 0.429529
176 1 0.0819482 0.983239 0.386318
249 1 0.274769 0.811933 0.463759
238 1 -0.00491978 0.933929 0.252948
91 1 0.107599 0.743145 0.307743
119 1 0.0523023 0.84398 0.585488
6 1 0.203238 0.858322 0.58265
76 1 0.137325 0.931175 0.691962
347 2 0.220166 0.770301 0.673219
121 1 0.0976686 0.760194 0.70878
257 1 0.117001 1.00498 0.54291
43 1 0.302036 0.973551 0.607136
144 1 0.205261 0.825246 0.796235
332 2 0.0732146 0.851137 0.809276
346 2 0.138767 0.824682 0.939414
241 1 0.14415 0.935668 0.869921
11 1 0.26459 0.853205 0.942098
342 2 0.334628 0.852928 0.816075
105 1 0.0314401 0.984826 0.785918
255 1 0.313984 0.997427 0.909798
240 1 0.629928 0.123482 0.139555
204 1 0.48724 0.126414 0.0700525
44 1 0.462762 0.111685 0.234738
182 1 0.362294 0.230576 0.103158
319 2 0.585558 0.148657 0.257242
109 1 0.58509 0.218064 0.00316369
165 1 0.524554 0.249233 0.183763
52 1 0.360234 0.0187616 0.143526
239 1 0.531987 0.233704 0.338239
130 1 0.476405 0.106064 0.397106
9 1 0.640632 0.141269 0.406976
127 1 0.360742 0.0131981 0.463144
246 1 0.604513 0.00999035 0.291468
293 2 0.501808 0.122156 0.670168
79 1 0.629038 0.184918 0.639565
260 1 0.529404 0.0525549 0.530788
283 1 0.430562 0.239429 0.648083
77 1 0.376905 0.0997955 0.578989
22 1 0.518303 0.197521 0.512096
85 1 0.391122 0.103514 0.749274
40 1 0.36339 0.225997 0.498264
287 1 0.452562 0.092278 0.908937
95 1 0.538046 0.0412499 0.772175
53 1 0.447739 0.234884 0.950531
253 1 0.521114 0.206545 0.78361
186 1 0.360551 0.235957 0.805985
4 1 0.632024 0.128859 0.874155
111 1 0.596931 0.0465747 0.994227
214 1 0.399413 0.471928 0.0264965
335 2 0.379404 0.329059 0.0242679
71 1 0.499429 0.342829 0.0595708
138 1 0.387568 0.366897 0.156364
63 1 0.653136 0.354425 0.170885
199 1 0.533709 0.475705 0.142751
80 1 0.636213 0.3803 0.0215662
222 1 0.542479 0.342113 0.434221
170 1 0.62026 0.508137 0.279619
13 1 0.412785 0.428659 0.387731
309 2 0.540024 0.457077 0.367955
224 1 0.381525 0.26408 0.272081
302 2 0.428373 0.295951 0.396167
94 1 0.666308 0.429561 0.519292
5 1 0.506693 0.379318 0.265667
261 1 0.659552 0.350779 0.330089
106 1 0.348832 0.386872 0.542335
82 1 0.553684 0.328176 0.610707
157 1 0.488262 0.445536 0.534722
356 2 0.605353 0.440971 0.627226
306 2 0.460811 0.31043 0.535456
88 1 0.66197 0.266808 0.494169
171 1 0.488569 0.477131 0.682405
219 1 0.375563 0.366622 0.899605
320 2 0.527356 0.444548 0.987659
100 1 0.547817 0.340975 0.891376
153 1 0.36331 0.48959 0.808522
305 2 0.665834 0.42714 0.875717
98 1 0.520203 0.506582 0.851165
203 1 0.461718 0.355095 0.763033
20 1 0.618623 0.422401 0.752309
290 2 0.606787 0.299985 0.760673
172 1 0.557691 0.627184 0.213887
288 1 0.430585 0.592712 0.117029
360 2 0.567032 0.664039 0.0910544
336 2 0.592795 0.746474 0.225779
26 1 0.678496 0.594999 0.105514
227 1 0.521904 0.56829 0.00034728
291 2 0.345841 0.589901 0.227612
211 1 0.479255 0.566044 0.415799
90 1 0.413899 0.671303 0.276591
208 1 0.565957 0.687628 0.368854
108 1 0.406097 0.713268 0.427073
47 1 0.654856 0.571699 0.409816
299 2 0.560666 0.635388 0.489043
173 1 0.449222 0.515119 0.267131
286 1 0.59573 0.565955 0.585779
193 1 0.55131 0.666057 0.685237
185 1 0.660081 0.697195 0.526444
72 1 0.45397 0.605962 0.564412
344 2 0.584914 0.545675 0.711704
269 1 0.365011 0.733491 0.58435
81 1 0.407758 0.620166 0.739119
96 1 0.332425 0.49743 0.644886
329 2 0.368851 0.512416 0.511914
234 1 0.526041 0.661502 0.839934
215 1 0.384569 0.60038 0.899956
323 2 0.327069 0.738196 0.952745
142 1 0.632919 0.668441 0.961709
281 1 0.475691 0.714545 0.986777
235 1 0.660469 0.718544 0.816083
117 1 0.607137 0.869943 0.181458
67 1 0.365385 0.814603 0.0629805
359 2 0.647269 0.932925 0.0642586
191 1 0.540743 0.846501 0.029768
316 2 0.453051 0.88365 0.133401
34 1 0.497438 0.751069 0.147527
131 1 0.383569 0.817578 0.231939
198 1 0.42659 0.95132 0.0264394
183 1 0.540201 0.990809 0.125334
132 1 0.515699 0.813917 0.30745
285 1 0.385044 0.864675 0.380328
324 2 0.477684 0.81683 0.449817
68 1 0.611739 0.822202 0.446556
195 1 0.509798 0.944661 0.425637
58 1 0.459324 0.953138 0.267228
247 1 0.666266 0.97417 0.445262
156 1 0.465012 0.980147 0.643749
358 2 0.476393 0.850232 0.657538
65 1 0.588203 0.900102 0.577093
103 1 0.660474 0.791639 0.668637
37 1 0.417571 0.884957 0.535283
159 1 0.53199 0.752359 0.572496
326 2 0.598016 1.0044 0.653018
14 1 0.336612 0.844968 0.680984
23 1 0.513488 0.951267 0.896251
150 1 0.412045 0.948922 0.789026
187 1 0.573262 0.808241 0.885383
205 1 0.415939 0.836743 0.912341
126 1 0.451287 0.776628 0.768514
340 2 0.640394 0.975479 0.818073
310 2 0.659453 0.800636 1.00018
113 1 0.556369 0.89437 0.753462
133 1 0.892739 0.198114 0.0470492
232 1 0.900523 0.0424974 0.205263
233 1 0.913127 0.0389848 0.0417588
282 1 0.790371 0.129847 0.146766
330 2 0.951885 0.133309 0.1347
318 2 0.683167 0.139017 0.00845108
73 1 0.755397 0.0312206 0.0308159
178 1 0.996094 0.243807 0.169632
265 1 0.806877 0.137652 0.438007
21 1 0.950005 0.212469 0.409487
64 1 0.919784 0.0139842 0.365828
300 2 0.947028 0.214668 0.276247
216 1 0.818649 0.170278 0.296788
38 1 0.77739 0.0187616 0.336321
337 2 0.704721 0.100554 0.269624
61 1 0.676873 0.221973 0.243416
54 1 0.965917 0.171814 0.686616
135 1 0.92109 0.094581 0.528325
124 1 0.784914 0.204709 0.593835
97 1 0.843239 0.0451978 0.645744
1 1 0.695248 0.0643527 0.733995
244 1 0.699558 0.0770266 0.55852
92 1 0.703354 0.220092 0.774534
315 2 0.930202 0.0623061 0.734478
51 1 0.922563 0.0478282 0.880096
70 1 0.853878 0.161457 0.784709
12 1 0.796718 0.170472 0.936576
313 2 0.981392 0.13021 0.95914
158 1 0.751894 0.0335584 0.87203
274 1 0.73274 0.254092 0.0764816
333 2 0.872751 0.414753 0.193641
128 1 0.932068 0.376604 0.0794783
29 1 0.770187 0.45277 0.0717096
237 1 0.83824 0.282516 0.182695
294 2 0.671392 0.480701 0.156459
75 1 0.760765 0.429273 0.246542
354 2 1.0046 0.262198 0.0390527
32 1 0.782489 0.459169 0.39973
78 1 0.897592 0.333034 0.3203
202 1 0.936998 0.456296 0.45387
49 1 0.799057 0.298428 0.436261
334 2 0.768184 0.301255 0.283598
143 1 0.906075 0.481152 0.300222
297 2 0.979798 0.383328 0.549745
41 1 0.814876 0.391564 0.549768
163 1 0.923673 0.266056 0.55233
169 1 0.878836 0.45532 0.688443
251 1 0.837864 0.294295 0.699872
207 1 0.701374 0.330278 0.648475
321 2 0.872509 0.51258 0.550454
226 1 0.826884 0.340178 0.956062
338 2 0.92358 0.442864 0.952123
3 1 0.91661 0.387075 0.832562
263 1 0.769998 0.388307 0.793749
350 2 0.817499 0.269729 0.839398
353 2 0.946064 0.253595 0.779003
167 1 0.695709 0.291892 0.910675
166 1 0.935333 0.240778 0.908397
136 1 0.834975 0.744755 0.146116
145 1 0.813918 0.641783 0.0451047
56 1 0.967892 0.66041 0.0905367
267 1 0.768993 0.584144 0.230624
213 1 0.664901 0.737836 0.11701
189 1 0.896601 0.526034 0.145561
276 1 0.991938 0.531913 0.00630826
101 1 0.751763 0.748173 0.419008
31 1 0.82319 0.610294 0.380063
200 1 0.704205 0.711741 0.281615
327 2 0.920473 0.703324 0.405674
86 1 0.992768 0.595006 0.396182
110 1 0.93595 0.631267 0.246557
272 1 0.812137 0.725847 0.563659
10 1 0.712105 0.643179 0.68006
277 1 0.998101 0.49514 0.583819
89 1 0.755583 0.572441 0.521366
236 1 0.857064 0.612102 0.670217
295 2 0.984965 0.583301 0.690964
308 2 0.912692 0.762973 0.637516
196 1 0.905525 0.626552 0.511034
181 1 0.723856 0.487252 0.650618
180 1 0.926583 0.553331 0.799232
217 1 0.9507 0.705919 0.755144
331 2 0.744954 0.615905 0.935625
129 1 0.925285 0.65833 0.929782
268 1 0.811734 0.657031 0.827438
55 1 0.674775 0.548886 0.816536
212 1 0.823298 0.502107 0.903304
339 2 0.791734 0.50708 0.768223
59 1 0.679153 0.520671 0.968607
230 1 0.978374 0.787411 0.19641
19 1 0.887472 0.785866 0.00123389
345 2 0.731466 0.837972 0.201587
307 2 0.830394 0.974609 0.118769
8 1 0.752121 0.864303 0.0662564
161 1 0.844989 0.900469 0.227595
140 1 0.946185 0.904254 0.0984494
16 1 0.72096 0.988761 0.181412
190 1 0.840664 0.875818 0.399914
99 1 0.978767 0.827358 0.362742
93 1 0.970456 0.9421 0.488608
141 1 0.705131 0.864049 0.326629
15 1 0.856903 0.747377 0.299424
87 1 0.812347 0.983395 0.507642
160 1 0.71492 0.936972 0.655088
197 1 0.734365 0.852712 0.531488
262 1 0.865415 0.88194 0.624732
221 1 0.965594 0.861442 0.737046
194 1 0.980129 0.988393 0.638416
209 1 0.799301 0.759716 0.727323
229 1 0.930179 0.79289 0.502316
116 1 0.868326 0.81425 0.849295
245 1 0.833822 0.930124 0.950251
28 1 0.713015 0.866213 0.81026
24 1 0.849703 0.953896 0.770745
57 1 0.759544 0.751144 0.939986
278 1 0.665427 0.921361 0.943991
134 1 1.0015 0.898952 0.921085
ITEM: TIMESTEP
600000
ITEM: NUMBER OF ATOMS
360
ITEM: BOX BOUNDS pp pp pp
0.0000000000000000e+00 6.6943295008216896e+00
0.0000000000000000e+00 6.6943295008216896e+00
0.0000000000000000e+00 6.6943295008216896e+00
ITEM: ATOMS id type xs ys zs
204 1 0.321155 0.0472336 0.141132
168 1 0.298595 0.167225 0.0604754
105 1 0.166758 0.0975013 0.123721
296 2 0.242093 0.0374554 0.0317981
273 1 0.0278341 0.159206 0.078279
51 1 0.0421786 0.010374 0.0016947
2 1 0.0188823 0.0218311 0.155764
284 1 0.19299 0.245789 0.165298
303 2 0.224477 0.130717 0.23954
102 1 0.196448 0.00412793 0.241107
288 1 0.243893 0.211395 0.333927
46 1 0.169955 0.0857363 0.382014
127 1 0.0265573 0.0497728 0.3388
43 1 0.306498 0.0600988 0.330348
225 1 0.319288 0.14452 0.455568
177 1 0.0811678 0.215612 0.392338
332 2 0.237759 0.0311288 0.48568
66 1 0.102618 0.151552 0.257306
147 1 0.265698 0.0350477 0.616856
292 2 0.0513355 0.121655 0.579044
228 1 0.206211 0.149111 0.685107
135 1 0.0662416 0.21028 0.668546
24 1 0.109192 0.0289265 0.669824
148 1 0.170885 0.148825 0.531088
194 1 0.100857 0.0115148 0.523914
241 1 0.076078 0.0553181 0.860183
346 2 0.00423244 0.113481 0.943247
134 1 0.0782828 0.229962 0.857367
158 1 0.225622 0.177048 0.845429
252 1 0.154663 0.138267 0.985106
17 1 0.210419 0.0366064 0.784539
355 2 0.10612 0.141346 0.772252
33 1 0.309603 0.0895398 0.933942
298 2 0.193186 0.429507 0.213158
271 1 0.0523051 0.298361 0.193243
178 1 0.0703501 0.451317 0.142945
69 1 0.261098 0.386538 0.117378
357 2 0.134473 0.338215 0.102821
263 1 0.0422992 0.3256 0.0299557
253 1 0.208518 0.278213 0.00277655
143 1 0.242919 0.472862 0.330179
175 1 0.123663 0.459515 0.435836
306 2 0.308768 0.340668 0.381389
74 1 0.19178 0.309619 0.441557
27 1 0.137261 0.350315 0.302072
250 1 0.285794 0.432019 0.468367
348 2 0.0626937 0.348293 0.423161
343 2 0.0127151 0.426364 0.272781
125 1 0.292512 0.335695 0.258263
84 1 0.224441 0.283675 0.600051
353 2 0.178043 0.266572 0.724962
139 1 0.212711 0.395789 0.71187
184 1 0.0911365 0.391036 0.581138
248 1 0.0472951 0.26107 0.52918
3 1 0.0804987 0.349337 0.746838
217 1 0.0832028 0.488886 0.693658
222 1 0.204752 0.496351 0.588739
257 1 0.320522 0.262083 0.728276
322 2 0.308211 0.392948 0.986953
192 1 0.220311 0.329733 0.848407
254 1 0.126829 0.474629 0.838328
312 2 0.113464 0.366648 0.912695
206 1 0.274765 0.45261 0.886652
212 1 0.0141093 0.479587 0.979604
180 1 0.175888 0.429686 1.0019
45 1 0.245011 0.542104 0.174712
205 1 0.282286 0.70134 0.215431
227 1 0.142804 0.562855 0.0574269
255 1 0.248535 0.674511 0.0718389
279 1 0.131002 0.651771 0.20024
81 1 0.307428 0.541903 0.00762646
230 1 0.0585002 0.733761 0.0579609
56 1 -0.00175576 0.585489 0.0974733
342 2 0.00571773 0.631442 0.24586
358 2 0.22361 0.609527 0.300768
325 2 0.115262 0.57761 0.491021
91 1 0.11912 0.653603 0.365646
258 1 0.251248 0.579641 0.44988
67 1 0.261231 0.715597 0.366877
39 1 0.110335 0.516772 0.279752
311 2 0.191728 0.702065 0.484904
137 1 0.205417 0.710672 0.741947
151 1 0.1271 0.633805 0.624632
328 2 0.0164115 0.689453 0.678991
86 1 0.027023 0.705083 0.53846
115 1 0.276188 0.65948 0.599828
301 2 0.334664 0.544634 0.6566
35 1 0.0123852 0.546388 0.548178
266 1 0.227518 0.562516 0.725148
36 1 0.202037 0.604624 0.895533
42 1 0.0384911 0.644363 0.933991
122 1 0.0812724 0.631599 0.773796
153 1 0.302712 0.712389 0.872635
347 2 0.153619 0.681086 0.989722
19 1 0.0220539 0.755387 0.212139
270 1 0.181232 0.801743 0.165325
186 1 0.178116 0.94109 0.0953199
78 1 0.0201627 0.872889 0.131951
25 1 0.320196 0.839576 0.126903
323 2 0.10782 0.897458 0.231794
50 1 0.136587 0.793494 0.306943
76 1 0.127221 0.93568 0.377455
52 1 0.26632 0.884929 0.383532
131 1 0.111888 0.821979 0.468703
37 1 0.307521 0.783147 0.499021
319 2 0.256084 0.858407 0.258734
48 1 0.189681 0.893966 0.706486
275 1 0.0651841 0.885675 0.601707
6 1 0.234756 0.906042 0.535176
259 1 0.181432 0.769532 0.599321
123 1 0.0786848 0.789155 0.728296
114 1 0.319614 0.799803 0.648664
83 1 0.198993 0.981197 0.932414
179 1 0.111113 0.909114 0.831868
11 1 0.258352 0.850403 0.849072
276 1 0.0507442 0.854906 0.965352
154 1 0.201322 0.80394 1.00216
326 2 0.320841 0.971367 0.86667
140 1 0.132755 0.75093 0.867509
345 2 0.590884 0.148015 0.167291
182 1 0.472586 0.0990277 0.121383
53 1 0.51966 0.250621 0.0957224
161 1 0.617876 0.0214627 0.105876
174 1 0.349392 0.19615 0.202862
293 2 0.396215 0.0480548 0.0309355
183 1 0.611021 0.12824 0.00346865
256 1 0.451034 0.111115 0.380726
38 1 0.620419 0.203465 0.381275
294 2 0.453212 0.202003 0.491945
260 1 0.591067 0.0519276 0.428765
16 1 0.550411 0.0424554 0.258893
71 1 0.505572 0.204169 0.254205
341 2 0.405134 0.0600942 0.25452
249 1 0.508188 0.0651157 0.701273
316 2 0.391904 0.058034 0.652603
244 1 0.582338 0.212574 0.534403
22 1 0.649226 0.086319 0.615628
324 2 0.43131 0.204022 0.696284
246 1 0.486794 0.0783085 0.548512
70 1 0.583381 0.199674 0.695432
118 1 0.360464 0.173687 0.59663
198 1 0.441568 0.0248239 0.846575
109 1 0.458785 0.142835 0.969448
95 1 0.47466 0.17849 0.820557
191 1 0.596933 0.0637695 0.845771
8 1 0.643768 0.217571 0.879528
167 1 0.350305 0.109203 0.761165
305 2 0.49642 0.371861 0.0363157
219 1 0.369808 0.300826 0.0643521
44 1 0.574573 0.403295 0.132367
149 1 0.438935 0.345377 0.195841
304 2 0.339557 0.45657 0.219989
146 1 0.403948 0.455925 0.0883603
55 1 0.649751 0.316766 0.0225946
61 1 0.657137 0.271642 0.174625
199 1 0.468889 0.501227 0.226499
155 1 0.40097 0.417785 0.350642
157 1 0.592101 0.457739 0.439534
88 1 0.618398 0.485882 0.279774
94 1 0.577203 0.33945 0.297837
203 1 0.502616 0.318148 0.44377
107 1 0.390954 0.256053 0.346076
239 1 0.347163 0.290841 0.488554
329 2 0.421336 0.406685 0.493059
290 2 0.457099 0.430093 0.687678
231 1 0.515951 0.456014 0.57053
106 1 0.581903 0.391977 0.697612
302 2 0.599578 0.357505 0.536817
79 1 0.462075 0.306536 0.606498
40 1 0.345792 0.409031 0.61289
172 1 0.434022 0.41652 0.915438
129 1 0.635228 0.395084 0.850099
201 1 0.524048 0.288927 0.924189
77 1 0.469931 0.324218 0.773484