ITEM: TIMESTEP
0
ITEM: NUMBER OF ATOMS
360
ITEM: BOX BOUNDS pp pp pp
0.0000000000000000e+00 6.6943295008216896e+00
0.0000000000000000e+00 6.6943295008216896e+00
0.0000000000000000e+00 6.6943295008216896e+00
ITEM: ATOMS id type xs ys zs
183 1 0.207583 0.0581761 0.197946
149 1 0.265395 0.203671 0.210332
27 1 0.113261 0.130512 0.103713
77 1 0.0594601 0.0562892 0.221821
98 1 0.277461 0.0900003 0.060245
167 1 0.245694 0.234285 0.0360029
218 1 0.155519 0.180079 0.314167
226 1 0.0677161 0.0863131 0.380074
147 1 0.242828 0.21992 0.438559
103 1 0.0174671 0.207971 0.256295
291 2 0.12456 0.186701 0.435913
275 1 0.302952 0.111397 0.357637
113 1 0.184688 0.09111 0.485098
348 2 0.164597 0.0634674 0.705875
116 1 0.290222 0.042629 0.687396
236 1 0.0571234 0.153289 0.538994
238 1 0.2149 0.197646 0.620095
109 1 0.076049 0.159934 0.705854
253 1 0.325164 0.126289 0.523175
240 1 0.159554 0.0504852 0.97268
345 2 0.0435938 0.191592 0.847969
279 1 0.1581 0.191562 0.895483
9 1 0.111641 0.039267 0.82378
209 1 0.25626 0.158284 0.779732
252 1 0.327458 0.17613 0.932539
123 1 0.267955 0.00297734 0.862424
289 2 0.067033 0.154051 0.984194
249 1 0.160894 0.40193 0.0448809
313 2 0.179516 0.481228 0.155106
358 2 0.242654 0.324245 0.126751
184 1 0.104061 0.268105 0.00984001
30 1 0.111862 0.288818 0.158792
188 1 0.060325 0.434198 0.159731
22 1 0.273968 0.425741 0.21535
155 1 0.331685 0.3826 0.0327555
161 1 0.00837484 0.434707 1.92423e-05
104 1 0.188033 0.333178 0.29965
166 1 0.29774 0.363602 0.414735
40 1 0.149794 0.440526 0.393888
107 1 0.0424556 0.355139 0.292429
239 1 0.146708 0.303621 0.495272
352 2 0.318151 0.319128 0.270987
84 1 0.00772451 0.284346 0.411272
266 1 0.241017 0.444142 0.528068
62 1 0.20344 0.364799 0.647939
284 1 0.0720504 0.414667 0.719811
312 2 0.0296834 0.340656 0.518689
165 1 0.0600242 0.289491 0.628072
134 1 0.089522 0.44469 0.554246
70 1 0.0398307 0.340758 0.881587
290 2 0.129215 0.432202 0.926653
221 1 0.182516 0.459905 0.806229
38 1 0.205048 0.340429 0.90148
287 1 0.138692 0.284554 0.77206
79 1 0.266659 0.470966 0.934089
114 1 0.291493 0.309188 0.757502
117 1 0.134648 0.551217 0.0527734
182 1 0.0407925 0.58744 0.15646
204 1 0.296362 0.540635 0.0746202
179 1 0.21725 0.60862 0.194799
320 2 0.219281 0.658853 0.0693521
71 1 0.134221 0.735132 0.192611
314 2 0.0305061 0.698132 0.106159
135 1 0.0995605 0.699325 0.00626439
349 2 0.0172837 0.688762 0.230772
74 1 0.314468 0.51618 0.368007
227 1 0.178409 0.586504 0.449632
51 1 0.265044 0.690538 0.343084
48 1 0.101487 0.655532 0.310163
261 1 0.0408745 0.560213 0.444239
324 2 0.206399 0.549962 0.31652
280 1 0.0870732 0.726239 0.460602
154 1 0.309279 0.731665 0.489896
157 1 0.0557555 0.513644 0.296412
215 1 0.170175 0.639333 0.594179
112 1 0.226071 0.741286 0.729847
323 2 0.0966779 0.536676 0.644016
36 1 0.0216366 0.68064 0.60485
81 1 0.318034 0.572579 0.520008
44 1 0.23549 0.526656 0.679023
138 1 0.149087 0.716123 0.8571
94 1 0.107984 0.602255 0.756207
177 1 0.151304 0.572552 0.914616
148 1 0.262206 0.615427 0.801473
272 1 0.256356 0.659389 0.949881
237 1 0.144044 0.89089 0.20457
145 1 0.258687 0.78524 0.0393773
172 1 0.0848889 0.83025 0.0582246
125 1 0.264907 0.942086 0.118944
55 1 0.274139 0.801828 0.217566
7 1 0.102852 0.981311 0.0944284
294 2 0.0200732 0.951275 0.17622
137 1 0.325628 0.944347 0.256468
127 1 0.290492 0.849596 0.381947
97 1 0.138941 0.890042 0.451982
3 1 0.152327 0.800692 0.325729
258 1 0.0515448 0.924157 0.32214
53 1 0.280902 0.98638 0.483796
115 1 0.190234 0.993372 0.348887
340 2 0.0142856 0.849587 0.456797
251 1 0.00495416 0.775346 0.33857
329 2 0.204718 0.765966 0.433105
42 1 0.185654 0.958369 0.595616
56 1 0.0674564 0.961077 0.691291
6 1 0.196337 0.78469 0.559833
4 1 0.0569515 0.835905 0.601484
343 2 0.128727 0.862641 0.709934
344 2 0.286278 0.866456 0.534229
244 1 0.0534443 0.991345 0.510399
136 1 0.250198 0.880104 0.716425
175 1 0.0546322 0.753916 0.740457
205 1 0.27367 0.815678 0.888043
257 1 0.211107 0.917863 0.977188
10 1 0.0535 0.944064 0.948435
306 2 0.157193 0.803366 0.947486
76 1 0.136998 0.88449 0.833852
203 1 0.0234892 0.777834 0.914841
176 1 0.428935 0.10582 0.0628514
19 1 0.604698 0.238467 0.197903
229 1 0.54424 0.20532 0.042288
213 1 0.570397 0.0879676 0.120661
302 2 0.372175 0.00273901 0.102649
242 1 0.46504 0.177946 0.188644
222 1 0.360937 0.0885245 0.20822
92 1 0.495039 0.0163998 0.224965
305 2 0.601472 0.0484039 0.00109252
299 2 0.407869 0.141164 0.431479
168 1 0.582942 0.107185 0.472583
66 1 0.49786 0.137112 0.337826
99 1 0.62234 0.236913 0.384013
29 1 0.373788 0.239107 0.353681
46 1 0.61587 0.0102962 0.353789
17 1 0.41268 0.0222742 0.355586
318 2 0.595861 0.101988 0.250497
12 1 0.486989 0.246409 0.451575
351 2 0.632047 0.214603 0.510094
283 1 0.443251 0.0507295 0.661357
194 1 0.471249 0.155416 0.562582
75 1 0.59707 0.100237 0.623173
37 1 0.361401 0.206808 0.666362
319 2 0.47702 0.172739 0.714848
174 1 0.437192 0.0170481 0.503501
195 1 0.482786 0.228061 0.894179
271 1 0.636544 0.186268 0.920807
332 2 0.367297 0.220392 0.80097
202 1 0.385828 0.0956759 0.790263
67 1 0.521542 0.0882531 0.923707
232 1 0.540626 0.0580826 0.781708
303 2 0.350465 0.0511001 0.946724
59 1 0.580878 0.198447 0.78497
293 2 0.507838 0.282946 0.128915
158 1 0.382944 0.294533 0.174597
21 1 0.397903 0.252763 0.0382833
254 1 0.464487 0.405684 0.138459
57 1 0.639433 0.367663 0.10985
2 1 0.431166 0.491815 0.00474697
250 1 0.608889 0.432953 0.270695
95 1 0.51162 0.304439 0.291969
219 1 0.561419 0.391604 0.416395
309 2 0.449756 0.366406 0.398156
54 1 0.405957 0.424677 0.289463
47 1 0.409766 0.462181 0.476898
25 1 0.497748 0.390874 0.581814
192 1 0.347112 0.420586 0.63482
353 2 0.456078 0.452052 0.69008
100 1 0.617355 0.344579 0.704363
317 2 0.66656 0.474976 0.552579
171 1 0.438766 0.337668 0.729846
285 1 0.642785 0.355062 0.550142
198 1 0.537688 0.261542 0.633667
89 1 0.351989 0.289782 0.548619
140 1 0.587339 0.498792 0.667026
96 1 0.398103 0.35502 0.896301
338 2 0.515213 0.322259 0.8166
246 1 0.5266 0.359493 0.996545
190 1 0.510869 0.459559 0.810587
101 1 0.613698 0.362026 0.869967
267 1 0.360495 0.474245 0.782041
129 1 0.486804 0.650945 0.158793
336 2 0.655053 0.601118 0.0272596
151 1 0.658934 0.60082 0.203722
82 1 0.620495 0.714163 0.0799521
310 2 0.428098 0.533032 0.124394
118 1 0.579057 0.52279 0.0934406
297 2 0.515375 0.509062 0.21749
181 1 0.387338 0.56788 0.243092
255 1 0.336268 0.68203 0.124628
274 1 0.508538 0.633341 0.0010303
130 1 0.413184 0.636907 0.373734
162 1 0.61933 0.645229 0.436588
325 2 0.49428 0.620771 0.468019
69 1 0.509637 0.518794 0.351887
141 1 0.543709 0.669678 0.301087
142 1 0.406977 0.74095 0.252592
34 1 0.56095 0.517306 0.498925
102 1 0.471537 0.624196 0.736907
337 2 0.588684 0.742511 0.535047
156 1 0.434926 0.677313 0.554902
185 1 0.568228 0.650588 0.614864
335 2 0.624387 0.618709 0.742256
196 1 0.442445 0.542033 0.606489
144 1 0.341897 0.644685 0.65793
8 1 0.39502 0.585913 0.883323
333 2 0.471651 0.710921 0.891332
164 1 0.56758 0.630162 0.857539
132 1 0.382798 0.726871 0.984039
146 1 0.568138 0.50609 0.946168
169 1 0.370351 0.731471 0.799163
214 1 0.644682 0.971201 0.203212
208 1 0.512384 0.97051 0.0520718
220 1 0.371754 0.903314 0.0036845
186 1 0.500585 0.818604 0.0404394
63 1 0.420136 0.883311 0.169181
110 1 0.546955 0.792616 0.196836
245 1 0.653306 0.859505 0.0871503
316 2 0.435777 0.768973 0.127509
45 1 0.617901 0.864225 0.323638
233 1 0.40652 0.8516 0.497544
26 1 0.464892 0.863151 0.322442
288 1 0.553332 0.902322 0.456511
180 1 0.519444 0.752263 0.435426
355 2 0.393895 0.757541 0.404348
170 1 0.649666 0.845502 0.588104
85 1 0.555482 0.929789 0.681792
230 1 0.357361 0.938741 0.609821
111 1 0.349136 0.791379 0.636516
265 1 0.495052 0.794217 0.629978
259 1 0.423986 0.869725 0.734471
315 2 0.549919 0.99535 0.572239
278 1 0.666281 0.987361 0.527643
296 2 0.356281 0.975396 0.761429
91 1 0.590263 0.754813 0.935059
120 1 0.595398 0.922921 0.927789
78 1 0.482404 0.833736 0.877103
217 1 0.42038 0.968904 0.873095
357 2 0.521579 0.936111 0.809561
106 1 0.546295 0.755331 0.759939
231 1 0.900089 0.0415364 0.146267
197 1 0.832364 0.154675 0.0536815
41 1 0.723288 0.120974 0.161268
50 1 0.956944 0.0703609 0.012142
201 1 0.687791 0.22507 0.0697779
234 1 0.986889 0.210496 0.0935451
68 1 0.85328 0.187774 0.218707
212 1 0.791849 0.01834 0.241882
11 1 0.86698 0.211044 0.393794
121 1 0.909411 0.0972391 0.47025
32 1 0.733385 0.136091 0.340371
191 1 0.908617 0.0755921 0.316101
292 2 0.72953 0.105381 0.63669
270 1 0.956364 0.0449253 0.64601
207 1 0.846175 0.145968 0.629203
211 1 0.69365 0.222343 0.627186
311 2 0.963137 0.204631 0.651788
33 1 0.921393 0.24419 0.535006
210 1 0.690122 0.00741564 0.716055
235 1 0.754156 0.117409 0.504871
83 1 0.742889 0.125138 0.769456
13 1 0.797274 0.176844 0.899222
28 1 0.669911 0.0516166 0.876312
216 1 0.833618 0.027271 0.91716
224 1 0.954245 0.214358 0.934173
23 1 0.888657 0.154247 0.77211
193 1 0.982865 0.0778929 0.862375
326 2 0.72393 0.116538 0.989653
277 1 0.784728 0.321724 0.151801
263 1 0.918711 0.385669 0.10438
307 2 0.982906 0.30577 0.178986
347 2 0.813456 0.408723 0.0212928
20 1 0.731395 0.470888 0.154254
301 2 0.974557 0.308407 0.0241201
328 2 0.691153 0.353186 0.224834
308 2 0.852009 0.281529 0.0479899
73 1 0.756033 0.293983 0.314093
295 2 0.695411 0.367077 0.434834
64 1 0.767776 0.455564 0.309124
108 1 0.824379 0.384452 0.42864
276 1 0.745266 0.257045 0.475133
300 2 0.936628 0.463363 0.312498
223 1 0.967028 0.424967 0.422543
152 1 0.887433 0.3435 0.271875
330 2 0.783734 0.354399 0.546231
1 1 0.815006 0.482924 0.550616
247 1 0.74091 0.432676 0.659889
228 1 0.824871 0.303983 0.665851
86 1 0.950705 0.407122 0.597279
119 1 0.72817 0.312373 0.95225
225 1 0.797123 0.435238 0.871514
122 1 0.724526 0.267095 0.77743
286 1 0.895917 0.348324 0.938751
35 1 0.904915 0.384957 0.776717
350 2 0.846314 0.288446 0.82107
139 1 0.977481 0.26559 0.755977
39 1 0.70556 0.457897 0.995043
105 1 0.777867 0.593507 0.0754127
88 1 0.899179 0.658489 0.159486
321 2 0.969011 0.514485 0.100291
133 1 0.760382 0.731745 0.154475
268 1 0.880437 0.505225 0.183046
159 1 0.974924 0.609592 0.0167717
14 1 0.688329 0.729122 0.291282
262 1 0.947153 0.671514 0.433038
128 1 0.940299 0.617689 0.298905
61 1 0.777894 0.677662 0.413739
163 1 0.855595 0.541393 0.410732
187 1 0.790785 0.611338 0.279869
354 2 0.676288 0.605641 0.337238
200 1 0.691913 0.508947 0.426476
65 1 0.830988 0.522595 0.72462
124 1 0.730861 0.605531 0.635359
43 1 0.882724 0.622184 0.580747
31 1 0.743078 0.726052 0.546476
150 1 0.974285 0.553332 0.677413
52 1 0.915468 0.672665 0.735851
334 2 0.943393 0.514479 0.514006
273 1 0.678412 0.733788 0.686179
359 2 0.779464 0.59059 0.500714
153 1 0.851839 0.59526 0.853166
360 2 0.767112 0.636762 0.750619
5 1 0.872782 0.739204 0.893929
282 1 0.995181 0.504224 0.836305
93 1 0.719784 0.71928 0.840258
281 1 0.716558 0.589356 0.911807
143 1 0.875095 0.513648 0.986211
339 2 0.830316 0.645009 0.967528
248 1 0.988766 0.65492 0.860559
160 1 0.678122 0.502658 0.797546
49 1 0.739765 0.728759 0.990915
256 1 0.791229 0.899176 0.134785
342 2 0.813182 0.818755 0.0298282
341 2 0.851264 0.987122 0.032499
18 1 0.938191 0.90669 0.091119
80 1 0.93524 0.754006 0.038115
322 2 0.858453 0.798662 0.162887
331 2 0.696793 0.831318 0.196968
58 1 0.716952 0.993772 0.0643715
243 1 0.991626 0.799452 0.18911
189 1 0.803153 0.996011 0.417658
178 1 0.864039 0.752004 0.28371
241 1 0.751978 0.888604 0.294742
60 1 0.881751 0.853535 0.398754
131 1 0.670971 0.795312 0.43808
327 2 0.945619 0.97179 0.401297
304 2 0.697345 0.9163 0.430476
126 1 0.903271 0.920042 0.263967
356 2 0.746332 0.894026 0.669715
199 1 0.918544 0.883765 0.662702
269 1 0.917594 0.77527 0.534703
16 1 0.782741 0.872995 0.519233
260 1 0.81734 0.773733 0.674592
206 1 0.924887 0.930342 0.519747
15 1 0.809536 0.997014 0.618428
264 1 0.81992 0.851011 0.81263
87 1 0.734369 0.87477 0.941403
24 1 0.891206 0.883303 0.953283
173 1 0.970275 0.910193 0.830678
298 2 0.754728 0.96758 0.822329
90 1 0.858051 0.992775 0.76184
346 2 0.929641 0.801015 0.777375
72 1 0.668625 0.85436 0.779744
ITEM: TIMESTEP
50000
ITEM: NUMBER OF ATOMS
360
ITEM: BOX BOUNDS pp pp pp
0.0000000000000000e+00 6.6943295008216896e+00
0.0000000000000000e+00 6.6943295008216896e+00
0.0000000000000000e+00 6.6943295008216896e+00
ITEM: ATOMS id type xs ys zs
125 1 0.176866 0.155773 0.099275
237 1 0.0643967 0.0571355 0.14313
17 1 0.263353 0.0283859 0.149285
338 2 0.275783 0.219041 0.0728476
92 1 0.300223 0.166399 0.209783
184 1 0.0181408 0.194886 0.119265
308 2 0.05994 0.105441 0.0066241
98 1 0.103714 0.211525 0.245193
275 1 0.108438 0.125133 0.436587
218 1 0.210456 0.149407 0.334809
53 1 0.289071 0.0904678 0.477039
303 2 0.0728228 0.0821663 0.311009
233 1 0.320626 0.0515711 0.314149
3 1 0.168801 0.00858354 0.267337
174 1 0.300505 0.152216 0.631931
236 1 0.194577 0.0758322 0.730609
123 1 0.175389 0.20235 0.546144
238 1 0.0902154 0.144591 0.660504
138 1 0.186972 0.0511789 0.581181
348 2 0.32565 0.0302936 0.717923
360 2 0.0693203 0.0953867 0.547555
37 1 0.206679 0.244034 0.69446
10 1 0.0853156 0.0509412 0.872655
240 1 0.201805 0.19477 0.967375
316 2 0.224797 0.101643 0.896039
209 1 0.301775 0.149363 0.805715
23 1 0.126054 0.192105 0.826435
139 1 0.0463693 0.236678 0.975892
220 1 0.304235 0.0416742 0.985403
249 1 0.287806 0.339892 0.120145
179 1 0.133617 0.489907 0.0719269
291 2 0.192951 0.258412 0.177673
188 1 0.132183 0.327223 0.0724496
117 1 0.158038 0.38489 0.21075
155 1 0.277724 0.489767 0.14144
223 1 0.045042 0.42666 0.342599
334 2 0.0224776 0.292472 0.319009
150 1 0.152854 0.272483 0.391977
107 1 0.263742 0.289082 0.280501
352 2 0.119317 0.418473 0.463126
147 1 0.224781 0.4209 0.410535
51 1 0.30704 0.429357 0.274371
152 1 0.0195508 0.323906 0.464794
158 1 0.275843 0.266507 0.46192
171 1 0.276113 0.397339 0.683014
313 2 0.0488345 0.2654 0.573216
319 2 0.300787 0.282112 0.618425
62 1 0.163016 0.350901 0.571432
289 2 0.0741433 0.262421 0.69438
261 1 0.0495322 0.483223 0.546609
323 2 0.236965 0.46326 0.548658
192 1 0.0182009 0.370417 0.639955
267 1 0.159893 0.506786 0.653312
89 1 0.330094 0.382425 0.539904
287 1 0.130406 0.367652 0.741264
221 1 0.245846 0.443552 0.847911
109 1 0.0130365 0.385686 0.919554
70 1 0.296649 0.321196 0.964332
9 1 0.159227 0.3336 0.907405
320 2 0.130777 0.470738 0.917482
114 1 0.285319 0.292763 0.816235
165 1 0.0186732 0.297656 0.80558
177 1 0.246621 0.480537 0.985869
71 1 0.0375127 0.635783 0.104151
255 1 0.219392 0.626433 0.0962416
324 2 0.184571 0.555052 0.194956
157 1 0.0664535 0.522619 0.211384
180 1 0.305052 0.605663 0.252971
314 2 0.271048 0.728298 0.0644575
251 1 0.0958992 0.66361 0.382094
112 1 0.248311 0.648441 0.3962
127 1 0.161038 0.533937 0.325981
259 1 0.333044 0.528977 0.471211
346 2 0.0419527 0.54773 0.417406
325 2 0.284584 0.534645 0.350385
111 1 0.173989 0.692288 0.246205
144 1 0.164228 0.534687 0.473128
40 1 0.0155351 0.672471 0.257458
154 1 0.139771 0.708745 0.516509
343 2 0.0908177 0.600397 0.573384
227 1 0.127077 0.651397 0.701388
78 1 0.241983 0.604403 0.586896
166 1 0.278053 0.573829 0.732141
169 1 0.233613 0.694457 0.830058
306 2 0.22883 0.57537 0.87785
161 1 0.134911 0.617455 0.970294
280 1 0.119131 0.557269 0.815704
6 1 0.0701363 0.718523 0.86025
266 1 0.00244154 0.5322 0.972507
44 1 0.299184 0.650358 0.958788
329 2 0.0503085 0.709653 1.0006
315 2 -0.0111006 0.683591 0.754304
279 1 0.111896 0.913217 0.128841
257 1 0.273645 0.906745 0.071698
243 1 0.0534745 0.780446 0.162985
272 1 0.152362 0.761186 0.0352981
322 2 0.246183 0.917575 0.193989
7 1 0.275904 0.792246 0.181806
76 1 0.160947 1.00133 0.00538623
344 2 0.184281 0.753926 0.359826
321 2 0.0480324 0.781868 0.321715
42 1 0.259601 0.897154 0.323154
48 1 0.128469 0.854659 0.268499
304 2 0.0820864 0.955483 0.363441
212 1 0.101902 0.839075 0.413127
283 1 0.243972 0.81345 0.463504
121 1 0.200288 0.978095 0.42924
18 1 0.0213477 0.957873 0.252319
137 1 0.319944 0.766528 0.332134
56 1 0.0898237 0.834931 0.603975
230 1 0.221582 0.752733 0.644275
296 2 0.181278 0.911925 0.527079
8 1 0.261351 0.927954 0.662322
84 1 0.0667818 0.966077 0.512932
94 1 0.0300963 0.814176 0.746073
248 1 0.0882884 0.963132 0.730535
113 1 0.314461 0.937275 0.509813
135 1 0.136013 0.870585 0.923999
136 1 0.225382 0.990696 0.842298
132 1 0.267058 0.80281 0.966471
215 1 0.173954 0.833743 0.761557
294 2 0.280756 0.927619 0.93278
88 1 0.0136877 0.977637 0.977419
205 1 0.319952 0.876408 0.810896
110 1 0.00804358 0.830126 0.995207
242 1 0.513576 0.171376 0.190177
331 2 0.419456 0.0474304 0.207522
305 2 0.571583 0.026945 0.0712049
167 1 0.527784 0.150599 0.0404958
202 1 0.388133 0.146206 0.0862404
87 1 0.661164 0.121723 0.124031
168 1 0.378491 0.199913 0.339274
288 1 0.487677 0.0807003 0.313487
241 1 0.608859 0.0470729 0.410879
75 1 0.448162 0.132113 0.454783
32 1 0.648951 0.152625 0.270662
254 1 0.532316 0.220773 0.343959
25 1 0.459378 0.164908 0.606596
252 1 0.427173 0.0953739 0.732278
253 1 0.396424 0.0244668 0.598611
326 2 0.567238 0.0998763 0.682227
15 1 0.558599 0.0667489 0.557136
317 2 0.553578 0.246043 0.651297
235 1 0.589434 0.218148 0.522829
116 1 0.375551 0.172808 0.944011
59 1 0.64733 0.136605 0.921023
217 1 0.497125 0.119805 0.887086
67 1 0.573673 0.0307313 0.794961
285 1 0.567238 0.191152 0.769565
302 2 0.427267 0.046848 0.976745
12 1 0.426294 0.235541 0.813311
66 1 0.618285 0.441945 0.0376809
27 1 0.390876 0.437708 0.0382538
309 2 0.389728 0.424309 0.185252
54 1 0.519637 0.37963 0.130947
22 1 0.424989 0.301684 0.218826
222 1 0.428904 0.289509 0.0540433
41 1 0.629396 0.273835 0.0723279
58 1 0.614176 0.299037 0.244376
332 2 0.496852 0.493832 0.083944
95 1 0.594424 0.367675 0.420669
104 1 0.525846 0.415822 0.278531
74 1 0.410813 0.363196 0.370508
99 1 0.432283 0.273267 0.49055
156 1 0.460242 0.450307 0.487642
351 2 0.429442 0.412404 0.60426
198 1 0.540897 0.362974 0.587599
194 1 0.411121 0.300117 0.667823
29 1 0.543951 0.491783 0.659838
335 2 0.593866 0.470136 0.50579
122 1 0.523586 0.33638 0.747959
96 1 0.409024 0.429222 0.747562
310 2 0.501232 0.451667 0.815896
57 1 0.620836 0.401071 0.85649
101 1 0.537163 0.259785 0.932945
195 1 0.411427 0.369147 0.896946
347 2 0.653148 0.322899 0.962218
311 2 0.497582 0.377991 0.979397
204 1 0.434032 0.534811 0.180141
148 1 0.525352 0.615731 0.0651238
118 1 0.62932 0.752426 0.0613515
142 1 0.52292 0.744242 0.168267
131 1 0.589524 0.510816 0.181232
172 1 0.378788 0.673412 0.122935
290 2 0.373663 0.567998 0.0408571
355 2 0.398644 0.700902 0.250309
47 1 0.569634 0.52817 0.383496
160 1 0.422865 0.514391 0.327937
265 1 0.397593 0.655344 0.404701
16 1 0.619704 0.690137 0.439601
130 1 0.546527 0.636968 0.280929
353 2 0.492837 0.719789 0.442335
357 2 0.462661 0.646667 0.648187
196 1 0.390879 0.538734 0.627985
337 2 0.623304 0.71809 0.567845
163 1 0.58319 0.646347 0.684408
81 1 0.516064 0.594022 0.519073
102 1 0.356694 0.687091 0.552502
185 1 0.498519 0.75199 0.578581
52 1 0.345305 0.708659 0.719648
140 1 0.596729 0.644349 0.899386
246 1 0.580666 0.543131 0.80015
164 1 0.444215 0.590001 0.759588
146 1 0.446173 0.630193 0.944686
336 2 0.52861 0.677459 0.799979
79 1 0.396702 0.73778 0.861597
299 2 0.392387 0.732023 0.994625
190 1 0.384277 0.517088 0.886143
38 1 0.527621 0.500421 0.93921
186 1 0.400526 0.818581 0.0874971
45 1 0.64569 0.861033 0.178906
63 1 0.533497 0.893456 0.0812793
129 1 0.397926 0.906008 0.216455
297 2 0.51311 0.857804 0.204986
82 1 0.425003 0.989919 0.0923615
149 1 0.545896 1.00087 0.197221
170 1 0.579011 0.836485 0.455221
26 1 0.552172 0.916531 0.319576
55 1 0.476137 0.791024 0.331811
178 1 0.646118 0.778894 0.311309
115 1 0.406509 0.830546 0.454093
85 1 0.452017 0.966573 0.427025
273 1 0.605521 0.805255 0.666321
232 1 0.432039 0.921606 0.710363
106 1 0.369599 0.83231 0.603336
210 1 0.511463 0.901655 0.575335
318 2 0.62274 0.953154 0.513899
189 1 0.620491 0.964912 0.658619
216 1 0.477378 0.771407 0.74454
145 1 0.406152 0.873157 0.953203
141 1 0.518091 0.766878 0.978319
91 1 0.654664 0.860385 0.937388
274 1 0.51794 0.867263 0.854643
176 1 0.554627 0.982155 0.952576
72 1 0.633959 0.759624 0.808057
120 1 0.40254 0.998242 0.857285
229 1 0.79135 0.0944935 0.0445016
234 1 0.917497 0.0262682 0.0833917
68 1 0.807286 0.096192 0.210248
293 2 0.899396 0.139749 0.130645
183 1 0.962664 0.0987472 0.242831
201 1 0.760139 0.23908 -0.00279919
328 2 0.949002 0.22692 0.239904
278 1 0.752852 0.102336 0.361164
277 1 0.83839 0.223267 0.299972
312 2 0.879553 0.111906 0.364764
77 1 0.860507 0.0673294 0.472949
239 1 0.972178 0.193571 0.364752
11 1 0.820354 0.210862 0.457747
226 1 0.986045 0.0459193 0.400918
284 1 0.949033 0.204031 0.694254
270 1 0.968746 0.0467067 0.595315
83 1 0.823079 0.144808 0.599709
247 1 0.791993 0.224852 0.729684
327 2 0.855414 0.106198 0.723878
276 1 0.971866 0.184253 0.527971
207 1 0.720937 0.0238445 0.548747
211 1 0.679643 0.150119 0.653746
292 2 0.673403 0.128754 0.500524
199 1 0.954633 0.0457556 0.754784
213 1 0.810469 0.135891 0.85758
93 1 0.894261 0.025693 0.908559
100 1 0.741149 0.056594 0.75055
173 1 0.960197 0.169533 0.849964
350 2 0.700117 0.172342 0.782558
193 1 0.917042 0.171026 1.01106
21 1 0.69101 0.395541 0.157729
358 2 0.7734 0.340612 0.0796265
73 1 0.838262 0.404046 0.194186
281 1 0.783897 0.493951 0.0615433
143 1 0.979218 0.444512 0.100689
263 1 0.881221 0.268574 0.121018
224 1 0.8826 0.376647 0.0214292
345 2 0.9838 0.310589 0.0666093
30 1 0.999795 0.336614 0.204434
19 1 0.743384 0.245638 0.175437
134 1 0.901312 0.354391 0.332116
34 1 0.772602 0.370802 0.400373
300 2 0.751975 0.328783 0.282776
340 2 0.950786 0.457728 0.249024
262 1 0.902539 0.466416 0.482371
14 1 0.686787 0.441304 0.300048
268 1 0.827456 0.488077 0.334568
214 1 0.67751 0.257741 0.379852
108 1 0.887698 0.45791 0.631919
219 1 0.720462 0.279307 0.562269
330 2 0.779829 0.371559 0.651136
33 1 0.892877 0.326442 0.553926
1 1 0.684047 0.427968 0.585012
354 2 0.783446 0.499164 0.568862
65 1 0.654943 0.298424 0.690089
35 1 0.884515 0.343915 0.737706
282 1 0.877189 0.446557 0.877291
86 1 1.00497 0.456714 0.775678
39 1 0.73613 0.42889 0.756494
13 1 0.750956 0.386222 0.936776
228 1 0.863429 0.289383 0.890748
225 1 0.693992 0.261075 0.862405
153 1 0.912045 0.734533 0.163735
64 1 0.804672 0.645149 0.093404
301 2 0.918091 0.567968 0.0574719
20 1 0.903121 0.566375 0.186825
295 2 0.790231 0.743296 0.177379
250 1 0.731903 0.555788 0.192708
2 1 0.66566 0.603463 0.0398115
181 1 0.674072 0.69708 0.199728
36 1 0.922321 0.7128 0.0132135
182 1 0.836719 0.6829 0.293753
60 1 0.835298 0.606765 0.449735
69 1 0.700375 0.606146 0.328017
187 1 0.939782 0.57145 0.34922
342 2 0.749912 0.69275 0.400829
49 1 0.944397 0.723819 0.38891
162 1 0.712342 0.510663 0.452992
97 1 0.98332 0.621568 0.499527
124 1 0.876318 0.695511 0.715748
128 1 0.857146 0.604761 0.6025
359 2 0.747862 0.575927 0.668052
260 1 0.724634 0.701758 0.663302
349 2 0.879102 0.700474 0.523616
269 1 0.997499 0.57352 0.676372
31 1 0.756891 0.715508 0.519031
4 1 0.995085 0.723377 0.629174
61 1 0.67127 0.583022 0.571386
286 1 0.955885 0.606688 0.84591
339 2 0.829543 0.66657 0.824112
151 1 0.84454 0.591128 0.945727
43 1 0.841746 0.553045 0.757745
200 1 0.710807 0.630807 0.798844
159 1 0.776512 0.718883 0.956872
119 1 0.716926 0.522746 0.905517
307 2 0.901699 0.952931 0.214754
80 1 0.952306 0.89163 0.120853
333 2 0.817756 0.960111 0.00655654
245 1 0.761973 0.816873 0.0818052
46 1 0.792084 0.957308 0.158927
208 1 0.678816 0.949823 0.0575074
191 1 0.702532 0.929628 0.391786
133 1 0.819708 0.79464 0.412232
231 1 0.96631 0.896112 0.390832
126 1 0.848321 0.994604 0.318015
197 1 0.682015 1.00691 0.258222
50 1 0.92668 0.830051 0.271006
356 2 0.699647 0.801422 0.450205
256 1 0.7798 0.847859 0.274162
244 1 0.966044 0.807618 0.510413
341 2 0.738234 0.882581 0.683388
175 1 0.846503 0.791538 0.617556
206 1 0.709342 0.857268 0.560675
24 1 0.950841 0.912453 0.661056
103 1 0.836228 0.921217 0.493804
298 2 0.895951 0.836118 0.731214
258 1 0.827698 0.981865 0.651467
264 1 0.828429 0.861475 0.928347
105 1 0.980781 0.906236 0.852608
5 1 0.780929 0.793555 0.784272
203 1 0.907848 0.756029 0.860919
271 1 0.837362 0.937816 0.791404
90 1 0.685483 0.907661 0.790632
28 1 0.741776 0.991188 0.909312
ITEM: TIMESTEP
100000
ITEM: NUMBER OF ATOMS
360
ITEM: BOX BOUNDS pp pp pp
0.0000000000000000e+00 6.6943295008216896e+00
0.0000000000000000e+00 6.6943295008216896e+00
0.0000000000000000e+00 6.6943295008216896e+00
ITEM: ATOMS id type xs ys zs
249 1 0.264711 0.221257 0.122541
308 2 0.0516089 0.137483 -0.00100675
226 1 0.221335 0.0587385 0.145321
18 1 0.111903 0.162695 0.0975968
293 2 0.101785 0.0227076 0.153327
125 1 0.117891 0.026176 0.0267097
53 1 0.136165 0.0839958 0.477952
218 1 0.0167515 0.135418 0.408466
270 1 0.291797 0.0959618 0.434123
319 2 0.182264 0.0963605 0.363155
3 1 0.115841 0.128177 0.244779
22 1 0.286142 0.121249 0.289785
107 1 0.158365 0.219525 0.4095
291 2 0.206887 0.216915 0.247769
323 2 0.335563 0.219111 0.460038
303 2 0.0716415 0.0282533 0.368048
40 1 0.0101944 0.00461747 0.250567
174 1 0.320938 0.196545 0.699161
158 1 0.0861496 0.208319 0.552781
253 1 0.140055 0.195045 0.695949
136 1 0.259045 0.0675286 0.738866
236 1 0.187273 0.0354061 0.60352
89 1 0.246896 0.193289 0.555583
287 1 0.0131839 0.0476662 0.55135
238 1 0.0929021 0.0423834 0.745178
351 2 0.23033 0.0125642 0.98095
116 1 0.242089 0.135927 0.983347
279 1 0.119633 0.118561 0.877125
173 1 0.213975 0.234138 0.83203
341 2 0.0498215 0.189903 0.789798
289 2 0.233144 0.107825 0.851468
322 2 0.0381851 0.0191435 0.855703
183 1 0.12902 0.306233 0.167219
184 1 0.108914 0.441205 0.0226754
179 1 0.193579 0.465393 0.176928
54 1 0.303842 0.373755 0.231087
98 1 0.255056 0.353758 0.0665551
157 1 0.0231755 0.401063 0.16073
150 1 0.14767 0.36037 0.306847
128 1 0.123236 0.48026 0.41675
123 1 0.0441052 0.355857 0.450525
78 1 0.252874 0.334731 0.480874
74 1 0.291036 0.258691 0.345625
73 1 0.0385367 0.255176 0.322139
223 1 0.267455 0.457698 0.377384
313 2 0.107973 0.402354 0.640385
165 1 0.211152 0.329501 0.655012
154 1 0.0198293 0.492672 0.53388
112 1 0.0116674 0.330778 0.606634
230 1 0.182928 0.472868 0.563115
317 2 0.271275 0.442714 0.675517
139 1 0.220378 0.373307 0.91729
282 1 0.0661856 0.352767 0.895515
240 1 0.304654 0.350954 0.772388
320 2 0.319191 0.441939 0.867211
261 1 0.0240419 0.307953 0.766934
307 2 0.279193 0.25169 0.941318
88 1 0.142338 0.252017 0.982118
33 1 0.140717 0.406497 0.764949
180 1 0.191919 0.616876 0.142543
127 1 0.334311 0.530954 0.202926
172 1 0.305032 0.692167 0.222948
221 1 0.242767 0.506149 0.0315338
345 2 0.105757 0.580425 0.0515593
97 1 0.0382017 0.658746 0.221081
80 1 0.0786813 0.704443 0.0750156
111 1 -0.00670782 0.554224 0.105247
251 1 0.16619 0.730608 0.310515
137 1 0.211293 0.566692 0.287991
8 1 0.0604474 0.618773 0.365437
297 2 0.0766288 0.726853 0.462561
7 1 0.332219 0.642025 0.388358
106 1 0.197561 0.679546 0.458065
352 2 0.24923 0.54954 0.457059
296 2 0.119899 0.573567 0.493176
134 1 0.0831096 0.51131 0.265385
329 2 0.242417 0.615329 0.715093
52 1 0.083825 0.660464 0.576061
259 1 0.257499 0.613394 0.581567
86 1 0.137997 0.553655 0.684037
147 1 0.191678 0.745327 0.685102
327 2 0.0844134 0.673826 0.701934
344 2 0.30466 0.712589 0.663971
113 1 0.325314 0.744996 0.532239
255 1 0.0125518 0.578016 0.961333
79 1 0.29642 0.733765 0.954971
153 1 0.0108067 0.734278 0.919608
164 1 0.317204 0.583037 0.900428
169 1 0.17824 0.657608 0.821297
155 1 0.181183 0.64497 0.983726
44 1 0.034525 0.626747 0.809245
109 1 0.265524 0.514382 0.779127
114 1 0.138388 0.516831 0.894693
231 1 0.0156532 0.923056 0.11446
121 1 0.103423 0.803355 0.18952
212 1 0.3251 0.978972 0.224513
17 1 0.172259 0.90832 0.0981508
346 2 0.0490001 0.829038 0.0327095
132 1 0.230908 0.764421 0.0953006
202 1 0.249456 0.844212 0.233247
142 1 0.235553 0.8465 0.422436
312 2 0.0398574 0.74653 0.318204
306 2 0.215662 0.964805 0.388876
84 1 0.105282 0.862294 0.332685
85 1 0.122659 0.931351 0.473995
283 1 0.173259 1.00178 0.283686
215 1 0.158753 0.795396 0.54884
316 2 0.183726 0.910292 0.582613
232 1 0.296678 0.84428 0.63056
6 1 0.0589904 0.807612 0.664602
350 2 0.28814 0.962709 0.672663
10 1 0.173408 0.918549 0.719854
360 2 0.0598037 0.955012 0.652564
160 1 0.281457 0.966631 0.511727
257 1 0.059711 0.911042 0.920266
272 1 0.0179721 0.920219 0.76985
199 1 0.190788 0.977713 0.86885
220 1 0.25094 0.816759 0.834172
105 1 0.105875 0.795896 0.819991
135 1 0.16129 0.80959 0.965516
145 1 0.287176 0.903285 0.986246
216 1 0.338283 0.938476 0.781325
19 1 0.512848 0.190422 0.196023
167 1 0.38958 0.117952 0.146891
87 1 0.602027 0.0978115 0.0757932
9 1 0.531767 0.234976 0.0465921
338 2 0.469142 0.0898768 0.0558922
334 2 0.393883 0.173078 0.255482
333 2 0.630218 0.222738 0.134535
176 1 0.360394 0.0203073 0.0400015
241 1 0.632882 0.125175 0.239088
168 1 0.421633 0.0296452 0.487822
265 1 0.418525 0.161579 0.380365
300 2 0.544135 0.206901 0.328058
189 1 0.562815 0.0784657 0.380024
254 1 0.448458 0.0658699 0.27499
197 1 0.66089 0.19114 0.388982
75 1 0.427939 0.204081 0.550761
15 1 0.425609 0.0806168 0.733976
233 1 0.338575 0.0807295 0.597687
310 2 0.465769 0.0773474 0.614521
67 1 0.571926 0.200877 0.665247
90 1 0.544131 0.112562 0.526896
357 2 0.65602 0.0323786 0.773712
348 2 0.474628 0.188606 0.809347
59 1 0.525624 -0.00680903 0.84385
120 1 0.513499 0.122703 0.946143
271 1 0.592887 0.135779 0.808956
292 2 0.646633 0.250722 0.795758
76 1 0.348835 0.0711712 0.881418
209 1 0.359586 0.22854 0.852713
101 1 0.384957 0.191467 1.01062
148 1 0.646158 0.457138 0.0636187
188 1 0.39957 0.282603 0.145308
222 1 0.538207 0.34351 0.153634
280 1 0.394277 0.427505 0.10529
195 1 0.611987 0.46823 0.211354
309 2 0.520415 0.467751 0.107612
119 1 0.557981 0.391393 0.390977
267 1 0.428294 0.363085 0.47317
242 1 0.610438 0.295625 0.273633
58 1 0.449892 0.302544 0.293576
27 1 0.45971 0.451815 0.264252
340 2 0.652638 0.312371 0.437257
290 2 0.370291 0.371844 0.362116
104 1 0.525858 0.24418 0.446995
196 1 0.413581 0.440042 0.714489
99 1 0.513647 0.333329 0.609245
12 1 0.360246 0.325236 0.60752
318 2 0.635875 0.332118 0.624585
144 1 0.339998 0.473072 0.566106
194 1 0.447255 0.272293 0.731716
235 1 0.637968 0.467043 0.642079
326 2 0.545342 0.473701 0.733267
29 1 0.491746 0.48424 0.573333