ITEM: TIMESTEP
0
ITEM: NUMBER OF ATOMS
360
ITEM: BOX BOUNDS pp pp pp
0.0000000000000000e+00 6.6943295008216896e+00
0.0000000000000000e+00 6.6943295008216896e+00
0.0000000000000000e+00 6.6943295008216896e+00
ITEM: ATOMS id type xs ys zs
303 2 0.0268611 0.101181 0.187754
158 1 0.157247 0.0710106 0.150151
116 1 0.243026 0.159095 0.0277004
279 1 0.0406941 0.0486376 0.0269696
125 1 0.0961156 0.194258 0.0877263
241 1 0.239924 0.217365 0.172226
92 1 0.290702 0.0044451 0.221187
142 1 0.313347 0.0589162 0.453086
77 1 0.0618432 0.214253 0.484793
249 1 0.227397 0.108182 0.321491
53 1 0.0927849 0.0762754 0.442386
236 1 0.229573 0.201015 0.444937
231 1 0.0923661 0.0133299 0.288896
306 2 0.326003 0.232578 0.309995
319 2 0.0961136 0.247635 0.364408
268 1 0.105857 0.181026 0.25638
214 1 0.0734607 0.0481963 0.64447
341 2 0.232933 0.182107 0.644264
73 1 0.0874863 0.218641 0.628436
261 1 0.196366 0.07106 0.715155
100 1 0.180475 0.115324 0.559124
136 1 0.319163 0.0740191 0.647068
12 1 0.312399 0.228085 0.73565
199 1 0.12137 0.111488 0.927071
173 1 0.246672 0.190858 0.865905
316 2 0.013951 0.0224193 0.765774
95 1 0.0604779 0.16495 0.775646
302 2 0.0176365 0.169169 0.985591
216 1 0.230591 0.0352664 0.866878
152 1 0.006049 0.325429 0.0850276
183 1 0.272247 0.369686 0.180991
184 1 0.0852007 0.451791 0.156799
226 1 0.170817 0.326403 0.0692437
291 2 0.120506 0.329083 0.19152
94 1 0.222401 0.493708 0.0952183
223 1 0.295342 0.339443 0.457238
179 1 0.0685418 0.358398 0.30525
338 2 0.277344 0.415021 0.341531
137 1 0.2369 0.499788 0.431795
150 1 0.217952 0.305813 0.299826
134 1 0.144564 0.34507 0.438097
330 2 0.123284 0.445698 0.373471
4 1 0.00481978 0.432345 0.417177
128 1 0.199141 0.480498 0.264366
86 1 0.146608 0.476205 0.548855
343 2 0.125658 0.391411 0.670986
14 1 0.00825147 0.331083 0.727159
107 1 0.206038 0.310358 0.574106
235 1 0.0493515 0.347995 0.569366
99 1 0.283256 0.368823 0.690685
286 1 0.0315015 0.483563 0.658025
323 2 0.317101 0.493023 0.721524
78 1 0.315242 0.470613 0.571326
33 1 0.0819523 0.457542 0.806404
157 1 0.243313 0.468465 0.831779
209 1 0.304932 0.33201 0.852484
354 2 0.179072 0.377979 0.884621
88 1 0.120787 0.444055 0.968372
117 1 0.111268 0.259512 0.923891
112 1 0.165379 0.299729 0.771698
188 1 0.267138 0.402552 0.978493
289 2 0.255522 0.28444 0.959449
180 1 0.110721 0.59166 0.199301
221 1 0.21631 0.660734 0.0801795
324 2 0.247034 0.583945 0.196148
139 1 0.0588305 0.569782 0.0303376
97 1 0.2295 0.707975 0.237332
48 1 0.0726877 0.735909 0.0388732
299 2 0.305594 0.749806 0.0936699
251 1 0.117114 0.581249 0.35672
160 1 0.258005 0.708325 0.452369
121 1 0.127495 0.725521 0.35186
312 2 0.0397652 0.70793 0.4506
259 1 0.305196 0.610309 0.32728
8 1 0.0032862 0.509019 0.26934
52 1 0.132431 0.630852 0.493994
109 1 0.197751 0.675129 0.639972
327 2 0.10739 0.586012 0.614139
105 1 0.0220319 0.745314 0.695493
344 2 0.288679 0.708293 0.746437
23 1 0.324201 0.606123 0.670758
337 2 0.0269142 0.536547 0.515007
311 2 0.246965 0.570243 0.574152
123 1 0.188281 0.520673 0.69082
320 2 0.10746 0.735269 0.579048
346 2 0.00413364 0.694027 0.815924
240 1 0.224143 0.619975 0.811038
166 1 0.109626 0.684193 0.914156
313 2 0.094369 0.552743 0.886776
65 1 0.199102 0.567008 0.958015
164 1 0.244984 0.73921 0.946754
169 1 0.0689815 0.602398 0.76213
255 1 0.0936779 0.757224 0.190932
202 1 0.234578 0.85544 0.2389
155 1 0.201581 0.823314 0.0801548
80 1 0.0672648 0.915071 0.129953
79 1 0.182701 0.970461 0.0231074
355 2 0.19198 0.943568 0.158728
212 1 0.318252 0.946032 0.0871388
40 1 0.0901044 0.863272 0.311954
297 2 0.210467 0.810736 0.368733
243 1 0.01305 0.916551 0.437253
238 1 0.146261 0.815079 0.47911
218 1 0.32853 0.845621 0.452178
84 1 0.239835 0.946296 0.362747
310 2 0.125138 0.95445 0.405713
215 1 0.332852 0.778748 0.319614
37 1 0.13045 0.845575 0.632356
1 1 0.28588 0.816125 0.676499
233 1 0.303267 0.934737 0.579804
296 2 0.243105 0.790764 0.554822
357 2 0.0600394 0.912907 0.552894
175 1 0.00218053 0.919609 0.666813
26 1 0.303716 0.94789 0.749831
276 1 0.171394 0.958203 0.517184
336 2 0.183623 0.959531 0.651087
205 1 0.30891 0.812761 0.828647
220 1 0.184787 0.871856 0.888695
334 2 0.280522 0.875801 0.981533
192 1 0.0648194 0.951186 0.908206
135 1 0.0286762 0.825361 0.826461
10 1 0.134058 0.94559 0.769031
114 1 0.168057 0.765981 0.772407
351 2 0.0948195 0.857502 0.976752
64 1 0.571494 0.116638 0.0904827
189 1 0.485179 0.0668103 0.206172
309 2 0.633354 0.203335 0.0253432
21 1 0.409981 0.244495 0.198671
333 2 0.525043 0.191782 0.190999
348 2 0.45133 0.156907 0.0612386
19 1 0.352412 0.103839 0.128356
245 1 0.65086 0.204427 0.225624
59 1 0.491041 0.0630941 0.402209
197 1 0.492786 0.208631 0.314365
90 1 0.378483 0.100722 0.300711
265 1 0.381788 0.217263 0.437349
28 1 0.61658 0.174513 0.399368
229 1 0.641799 0.0549849 0.295056
168 1 0.435688 0.106709 0.544589
267 1 0.437702 0.16759 0.685862
273 1 0.585138 0.0808845 0.520454
347 2 0.554474 0.092157 0.64792
13 1 0.567578 0.223537 0.647757
89 1 0.51776 0.22862 0.500737
342 2 0.633726 0.192041 0.543638
253 1 0.342378 0.243075 0.580405
207 1 0.634493 0.0324494 0.722322
120 1 0.440002 0.014256 0.702563
217 1 0.538529 0.134479 0.778374
167 1 0.380442 0.207604 0.949404
292 2 0.56073 0.196838 0.9011
15 1 0.373584 0.097637 0.808419
271 1 0.484591 0.103271 0.949934
83 1 0.64036 0.104272 0.896422
41 1 0.658265 0.246902 0.829601
76 1 0.346184 0.0589941 0.972664
162 1 0.552474 0.424148 0.0382548
148 1 0.630179 0.465206 0.169188
39 1 0.551127 0.327511 0.219903
280 1 0.439929 0.393377 0.138664
242 1 0.521717 0.255635 0.0732186
254 1 0.346555 0.279233 0.0743403
144 1 0.654747 0.316502 0.464317
58 1 0.504722 0.340828 0.399315
47 1 0.388874 0.460949 0.405035
219 1 0.626124 0.413794 0.321958
74 1 0.375834 0.339543 0.306412
352 2 0.579208 0.431407 0.429235
9 1 0.47414 0.466068 0.287347
340 2 0.610313 0.27894 0.3477
174 1 0.436487 0.31692 0.679759
252 1 0.481506 0.464525 0.654094
194 1 0.614012 0.368065 0.599367
165 1 0.440265 0.36635 0.534691
305 2 0.435958 0.48973 0.529521
211 1 0.56665 0.35281 0.769574
101 1 0.437796 0.351722 0.95141
87 1 0.603579 0.307488 0.953066
96 1 0.610643 0.43289 0.885953
285 1 0.428025 0.41377 0.79268
329 2 0.359946 0.491633 0.911401
317 2 0.540343 0.493791 0.800143
213 1 0.470938 0.253133 0.83583
146 1 0.639768 0.628342 0.18095
190 1 0.469053 0.657812 0.0317707
54 1 0.504486 0.539142 0.135833
181 1 0.621417 0.578745 0.0259858
172 1 0.359692 0.628128 0.125461
63 1 0.485804 0.706889 0.172208
294 2 0.356514 0.696251 0.222525
222 1 0.343211 0.502806 0.218182
98 1 0.404598 0.502998 0.0259411
127 1 0.444732 0.608968 0.281582
51 1 0.656504 0.540367 0.422085
204 1 0.491879 0.570348 0.420882
27 1 0.581844 0.670773 0.317568
82 1 0.451263 0.720928 0.40795
332 2 0.590558 0.547266 0.275365
113 1 0.354454 0.588102 0.488545
29 1 0.575408 0.671835 0.491612
232 1 0.473526 0.609018 0.590762
156 1 0.570749 0.504841 0.543551
85 1 0.367246 0.720101 0.558938
266 1 0.606271 0.669975 0.654249
25 1 0.635981 0.502009 0.692511
227 1 0.406551 0.720616 0.714932
359 2 0.491182 0.725696 0.610749
5 1 0.499047 0.59796 0.744904
72 1 0.639718 0.610172 0.826548
140 1 0.499704 0.558767 0.905757
118 1 0.336276 0.623347 0.940087
91 1 0.618521 0.715784 0.934657
124 1 0.565513 0.731385 0.787576
274 1 0.373149 0.581628 0.80894
145 1 0.438989 0.71219 0.881541
182 1 0.548192 0.805079 0.0378039
186 1 0.513375 0.878738 0.155895
7 1 0.37727 0.825249 0.182211
132 1 0.40382 0.809191 0.00367627
32 1 0.629328 0.769094 0.156007
38 1 0.468355 0.982276 0.0622155
349 2 0.401186 0.961262 0.179569
228 1 0.632438 0.976986 0.158367
325 2 0.653229 0.883161 0.0795501
30 1 0.611558 0.967434 0.00141931
350 2 0.499003 0.870908 0.406292
185 1 0.555241 0.9229 0.304593
42 1 0.485089 0.797961 0.28597
210 1 0.594534 0.952758 0.436211
246 1 0.435568 0.949191 0.49285
106 1 0.621188 0.800468 0.393823
149 1 0.402271 0.925242 0.306681
304 2 0.557079 0.94668 0.734532
115 1 0.561883 0.814858 0.675489
81 1 0.425173 0.860504 0.63201
75 1 0.557 0.951476 0.592104
163 1 0.50699 0.8047 0.51125
264 1 0.530533 0.858699 0.909049
176 1 0.371546 0.92773 0.909444
151 1 0.639314 0.878646 0.794721
61 1 0.445227 0.872376 0.77954
24 1 0.533577 0.996615 0.84974
3 1 0.734631 0.106622 0.133259
281 1 0.798346 0.229961 0.213364
283 1 0.909151 0.0842036 0.238061
301 2 0.825645 0.20657 0.0919761
193 1 0.939734 0.154089 0.101047
244 1 0.967644 0.236262 0.221797
293 2 0.70042 0.0816153 0.0107462
256 1 0.925698 0.042937 0.377433
258 1 0.87737 0.177261 0.450129
298 2 0.87052 0.202164 0.312834
66 1 0.779903 0.107065 0.325789
356 2 0.679756 0.0332501 0.412393
110 1 0.812012 0.0311555 0.464777
46 1 0.747136 0.155024 0.495451
22 1 0.994665 0.166425 0.353812
191 1 0.847035 0.115982 0.60345
328 2 0.899474 0.00367495 0.637265
178 1 0.928756 0.245716 0.579803
288 1 0.70874 0.175076 0.666061
62 1 0.840197 0.237897 0.696654
93 1 0.91868 0.101312 0.742167
278 1 0.71195 0.0437155 0.590592
339 2 0.973399 0.213939 0.69573
353 2 0.998035 0.135774 0.570837
287 1 0.787045 0.00868309 0.730697
68 1 0.96454 0.0255228 0.535255
36 1 0.746087 0.224056 0.966657
203 1 0.779497 0.139559 0.809028
308 2 0.858337 0.0327308 0.850127
318 2 0.841127 0.197958 0.894976
49 1 0.851004 0.107448 0.983011
18 1 0.976106 0.0913339 0.88555
34 1 0.937137 0.236406 0.826414
171 1 0.704574 0.430798 0.00543269
119 1 0.687225 0.30285 0.104041
130 1 0.912081 0.38703 0.218746
111 1 0.836022 0.329667 0.0994941
247 1 0.914773 0.454964 0.0800699
277 1 0.764349 0.428457 0.231454
290 2 0.676653 0.334651 0.231675
108 1 0.870068 0.480687 0.352517
224 1 0.745137 0.417814 0.405461
57 1 0.74616 0.257232 0.35766
260 1 0.872304 0.37099 0.486418
358 2 0.813294 0.361289 0.324853
270 1 0.923456 0.302694 0.367758
104 1 0.773331 0.292701 0.566917
102 1 0.741421 0.441544 0.547909
69 1 0.883057 0.391027 0.642258
67 1 0.732227 0.374739 0.697851
269 1 0.917257 0.436482 0.787006
326 2 0.722858 0.348586 0.904155
177 1 0.803048 0.321458 0.809859
11 1 0.838664 0.378214 0.949634
122 1 0.750538 0.481685 0.824297
143 1 0.997201 0.361253 0.896503
237 1 0.918392 0.255546 0.989012
307 2 0.989178 0.464462 0.969977
70 1 0.722436 0.694853 0.0495836
206 1 0.88913 0.592301 0.216853
262 1 0.965156 0.672672 0.122029
20 1 0.769073 0.555656 0.119044
126 1 0.799382 0.69847 0.171703
300 2 0.985207 0.532951 0.140298
187 1 0.871251 0.589688 0.0151689
129 1 0.716269 0.690547 0.428945
154 1 0.95853 0.595474 0.427519
16 1 0.855115 0.674973 0.339193
43 1 0.801484 0.559544 0.452238
195 1 0.731604 0.601157 0.295794
250 1 0.998145 0.667766 0.295355
35 1 0.844436 0.723002 0.49562
335 2 0.873042 0.626421 0.594834
31 1 0.713081 0.613015 0.568297
44 1 0.756233 0.663297 0.716169
170 1 0.934316 0.611548 0.706911
133 1 0.824432 0.524792 0.663678
147 1 0.993253 0.656572 0.566641
196 1 0.909851 0.504446 0.546679
272 1 0.861756 0.737414 0.653479
295 2 0.851633 0.504044 0.904709
161 1 0.838238 0.605868 0.843276
71 1 0.961173 0.70864 0.937992
6 1 0.887418 0.747091 0.806847
314 2 0.822341 0.684805 0.943751
225 1 0.738665 0.572028 0.952764
201 1 0.741078 0.745328 0.859943
282 1 0.977757 0.548985 0.875413
208 1 0.929429 0.811963 0.15732
275 1 0.776217 0.985524 0.0607076
257 1 0.920688 0.982517 0.124466
45 1 0.767557 0.85255 0.138927
315 2 0.866081 0.895575 0.0399197
2 1 0.857186 0.762875 0.0389423
263 1 0.985974 0.855605 0.013917
153 1 0.806546 0.976674 0.216744
248 1 0.862411 0.880983 0.426056
321 2 0.771594 0.804635 0.390092
141 1 0.836462 0.826667 0.289563
103 1 0.721826 0.937383 0.331819
331 2 0.849054 0.95766 0.329934
60 1 0.971451 0.778971 0.386458
17 1 0.960921 0.923083 0.269759
345 2 0.992202 0.800676 0.269991
131 1 0.7114 0.756801 0.285999
55 1 0.722911 0.908978 0.486447
200 1 0.86607 0.883686 0.602474
322 2 0.923196 0.838493 0.716196
159 1 0.695437 0.893428 0.646775
230 1 0.989411 0.810099 0.549423
284 1 0.681334 0.773883 0.553597
360 2 0.678884 0.781526 0.719076
239 1 0.922573 0.970237 0.957655
56 1 0.862905 0.846787 0.913438
234 1 0.721984 0.834881 0.984878
50 1 0.92805 0.937873 0.803481
198 1 0.743697 0.975076 0.8661
138 1 0.797483 0.853133 0.759222
ITEM: TIMESTEP
60000
ITEM: NUMBER OF ATOMS
360
ITEM: BOX BOUNDS pp pp pp
0.0000000000000000e+00 6.6943295008216896e+00
0.0000000000000000e+00 6.6943295008216896e+00
0.0000000000000000e+00 6.6943295008216896e+00
ITEM: ATOMS id type xs ys zs
125 1 0.183016 0.0244439 0.062293
264 1 0.279962 0.175328 0.0924433
249 1 0.280059 0.0429435 0.177606
92 1 0.158002 0.128226 0.197558
293 2 0.0394058 0.148858 0.159212
158 1 0.131876 0.247048 0.0948034
333 2 0.162098 0.142199 0.0158724
116 1 0.0186083 0.0940113 0.0399571
79 1 0.0450878 0.0158127 0.171397
299 2 0.23294 0.247964 0.182922
90 1 0.276281 0.186262 0.294409
343 2 0.0300627 0.111087 0.411809
223 1 0.289608 0.105722 0.425551
236 1 0.144513 0.126674 0.352294
136 1 0.0947608 0.184079 0.651537
175 1 0.0932593 0.0447224 0.574371
78 1 0.325947 0.227785 0.547362
233 1 0.253008 0.0819541 0.57497
305 2 0.262147 0.119487 0.716493
209 1 0.242686 0.234721 0.677327
120 1 0.121982 0.064042 0.736862
104 1 0.0108405 0.156847 0.519672
107 1 0.163225 0.195454 0.509589
14 1 0.00864293 0.203223 0.800607
254 1 0.184448 0.172277 0.826271
21 1 0.0734549 0.211927 0.957038
15 1 0.284517 0.107037 0.955313
173 1 0.119163 0.065366 0.908908
271 1 0.240891 0.0171304 0.822097
326 2 0.330792 0.232944 0.891122
183 1 0.178926 0.384214 0.154577
245 1 0.298649 0.329209 0.0839097
152 1 0.0221551 0.371802 0.155618
34 1 0.115625 0.367261 0.00627701
226 1 0.091787 0.49066 0.0810129
8 1 0.262853 0.48815 0.0792777
4 1 0.159103 0.436586 0.300908
235 1 0.273803 0.283497 0.405177
244 1 0.108729 0.326514 0.421892
134 1 0.237211 0.43557 0.431441
320 2 0.0800009 0.449842 0.399899
108 1 0.0029378 0.384637 0.314286
184 1 0.28931 0.347412 0.25473
53 1 0.137661 0.262617 0.28003
267 1 0.211018 0.336727 0.549722
69 1 0.0482788 0.306327 0.576769
346 2 0.211498 0.354519 0.682653
252 1 0.273086 0.470749 0.584924
86 1 0.0844102 0.416342 0.684663
99 1 0.121994 0.472698 0.522616
62 1 0.115055 0.487064 0.87614
157 1 0.283536 0.316053 0.804282
83 1 0.001595 0.353511 0.880913
117 1 0.263906 0.410076 0.941275
348 2 0.157986 0.371506 0.883853
33 1 0.205574 0.461205 0.749872
286 1 0.122512 0.308891 0.777288
189 1 0.226137 0.257598 0.955436
114 1 0.103763 0.723187 0.0286627
307 2 0.0341973 0.601463 0.0504342
330 2 0.084532 0.701984 0.150918
155 1 0.169199 0.599877 0.156717
7 1 0.282119 0.663534 0.0575849
282 1 0.0657676 0.516891 0.232323
206 1 0.220759 0.675253 0.285336
215 1 0.260013 0.66931 0.449061
300 2 0.271259 0.561765 0.379492
270 1 0.145633 0.558912 0.387925
257 1 0.0629977 0.662583 0.294069
68 1 0.128757 0.738312 0.416111
123 1 0.283202 0.514745 0.261607
169 1 0.309285 0.61842 0.616232
205 1 0.149194 0.560394 0.650862
85 1 0.158717 0.723256 0.602473
327 2 0.0537916 0.643123 0.661301
323 2 0.208874 0.56661 0.533743
296 2 0.214666 0.700998 0.716219
289 2 0.317022 0.521572 0.701359
77 1 0.0798298 0.627636 0.516721
240 1 0.24907 0.599698 0.77888
50 1 0.0188359 0.624251 0.918336
172 1 0.311203 0.562355 0.920956
221 1 0.203225 0.706912 0.917489
324 2 0.133472 0.607436 0.859972
65 1 0.164563 0.5791 0.988447
147 1 0.0331926 0.565115 0.762922
105 1 0.0884708 0.717398 0.769932
180 1 0.210721 0.761161 0.148341
60 1 0.180845 0.92 0.187749
255 1 0.0581389 0.840588 0.133422
10 1 0.188049 0.849454 0.0193314
40 1 0.33047 0.847703 0.0872835
311 2 0.128419 0.857795 0.395487
276 1 0.265885 0.820809 0.328935
253 1 0.179643 0.967156 0.44985
128 1 0.222677 0.815759 0.48272
231 1 0.0797662 0.954072 0.325048
250 1 0.109029 0.811664 0.276241
73 1 0.0182365 0.999551 0.459462
142 1 0.225835 0.995004 0.310771
100 1 0.235149 0.974505 0.678494
332 2 0.179355 0.907903 0.569931
261 1 0.164504 0.839873 0.717765
23 1 0.291061 0.790386 0.62527
203 1 0.0459748 0.946365 0.670975
35 1 0.0239966 0.775567 0.641175
95 1 0.0760537 0.867014 0.532914
265 1 0.315674 0.946926 0.539345
312 2 0.0437968 0.751061 0.511827
176 1 0.324241 0.949506 0.957102
88 1 0.0709579 0.807707 0.902969
12 1 0.0815435 0.933422 0.822111
109 1 0.229696 0.861661 0.851654
308 2 0.216847 0.995022 0.943996
71 1 0.0606115 0.938603 0.998359
84 1 0.423735 0.101965 0.14643
38 1 0.531527 0.207944 0.0981587
185 1 0.550797 0.143685 0.241908
132 1 0.407213 0.21804 0.0106613
186 1 0.572301 0.0419749 0.0819394
310 2 0.337788 0.0434004 0.0554435
219 1 0.396057 0.242408 0.176633
179 1 0.483655 0.147321 0.390188
197 1 0.625656 0.205054 0.462226
306 2 0.400479 0.0108645 0.467051
290 2 0.422641 0.18283 0.280818
131 1 0.380251 0.0650122 0.297272
349 2 0.604136 0.105752 0.379877
340 2 0.371877 0.188775 0.431246
45 1 0.649741 0.00295082 0.308993
28 1 0.576178 0.0438082 0.497198
168 1 0.365703 0.0730965 0.665598
174 1 0.434371 0.125378 0.529045
198 1 0.552098 0.0860831 0.655867
87 1 0.596073 0.219007 0.715331
194 1 0.443756 0.205262 0.662072
341 2 0.546993 0.219796 0.578142
182 1 0.461595 0.186748 0.870009
30 1 0.350814 0.163363 0.783287
208 1 0.584255 0.153056 0.956551
275 1 0.57248 0.0761736 0.824182
318 2 0.642042 0.216119 0.842891
80 1 0.404171 0.0316524 0.825672
24 1 0.438398 0.0693165 0.979378
314 2 0.464819 0.120227 0.751264
338 2 0.594469 0.383949 0.123007
280 1 0.642824 0.281753 0.180734
259 1 0.478953 0.348668 0.0673973
127 1 0.506479 0.355873 0.212923
54 1 0.375849 0.451538 0.159019
20 1 0.64131 0.293069 0.0210321
111 1 0.648311 0.494881 0.166783
303 2 0.612336 0.332388 0.443016
148 1 0.59359 0.43236 0.298659
211 1 0.511971 0.412226 0.477367
47 1 0.380099 0.447079 0.363938
241 1 0.409745 0.294943 0.354828
19 1 0.566654 0.271168 0.330898
58 1 0.65403 0.486919 0.459022
59 1 0.485016 0.268744 0.479487
165 1 0.573389 0.489623 0.611901
273 1 0.642725 0.32764 0.559294
122 1 0.508411 0.343757 0.620946
89 1 0.418285 0.47654 0.607136
213 1 0.351079 0.360999 0.66173
74 1 0.366493 0.367938 0.501354
228 1 0.572019 0.319129 0.858494
188 1 0.366779 0.456866 0.80994
64 1 0.40617 0.346165 0.929455
342 2 0.4822 0.419535 0.875591
25 1 0.439152 0.315684 0.776743
94 1 0.419116 0.483857 0.997768
181 1 0.641111 0.477273 0.85204
171 1 0.561036 0.431121 0.966198
321 2 0.526371 0.266168 0.981225
101 1 0.512883 0.454765 0.7564
222 1 0.511442 0.530823 0.112333
294 2 0.356084 0.567309 0.0676907
334 2 0.40904 0.715901 0.0917216
98 1 0.539043 0.692245 0.095745
309 2 0.579581 0.60303 0.197736
212 1 0.378828 0.612202 0.180235
137 1 0.366324 0.656256 0.328694
27 1 0.621521 0.638517 0.472644
121 1 0.506761 0.706392 0.414446
281 1 0.507121 0.555756 0.419014
156 1 0.617173 0.58402 0.314877
13 1 0.366939 0.552928 0.484502
242 1 0.482339 0.529981 0.260691
202 1 0.498453 0.702037 0.26296
329 2 0.511988 0.571022 0.687964
29 1 0.648443 0.607173 0.653114
204 1 0.496858 0.611798 0.556619
285 1 0.522764 0.69691 0.688638
359 2 0.400354 0.704608 0.646121
113 1 0.39063 0.724225 0.521394
232 1 0.413587 0.593187 0.768136
291 2 0.480434 0.559077 0.883863
162 1 0.574562 0.60403 0.798482
292 2 0.547192 0.719905 0.951912
81 1 0.473632 0.719215 0.838734
167 1 0.592325 0.59446 0.967261
344 2 0.333127 0.680097 0.880806
118 1 0.346394 0.743647 0.761079
274 1 0.428198 0.648405 0.980295
76 1 0.423624 0.950826 0.101074
243 1 0.489905 0.827852 0.167964
70 1 0.58071 0.887134 0.0633851
160 1 0.359156 0.911978 0.232113
32 1 0.633655 0.794738 0.176696
55 1 0.503737 0.996783 0.231068
297 2 0.626941 0.940933 0.175078
48 1 0.662496 0.751815 0.00965861
145 1 0.463084 0.803906 0.0218519
97 1 0.366309 0.753188 0.211206
149 1 0.431631 0.815978 0.344993
150 1 0.490981 0.979236 0.375207
106 1 0.620016 0.787328 0.465286
163 1 0.458038 0.867566 0.480575
31 1 0.579361 0.83913 0.310163
246 1 0.336824 0.934446 0.392735
347 2 0.346203 0.805283 0.436953
110 1 0.656265 0.929591 0.442433
218 1 0.452862 0.825369 0.630857
82 1 0.578694 0.896407 0.582288
210 1 0.457746 0.979235 0.587972
1 1 0.351351 0.896949 0.740255
75 1 0.601907 0.836553 0.740936
217 1 0.511405 0.952813 0.743719
9 1 0.652678 0.760719 0.621058
317 2 0.514506 0.756608 0.544709
103 1 0.654965 0.985218 0.714139
151 1 0.573845 0.981022 0.946669
216 1 0.43037 0.883559 0.865559
336 2 0.613956 0.952736 0.835942
61 1 0.564606 0.833656 0.906899
350 2 0.456024 0.822403 0.757668
355 2 0.447589 0.939235 0.977843
26 1 0.342362 0.786449 0.945005
119 1 0.683215 0.167281 0.0888261
11 1 0.911461 0.0808812 0.175331
234 1 0.843656 0.128831 0.0522349
283 1 0.967143 0.237932 0.214463
42 1 0.706224 0.0418878 0.170357
229 1 0.804584 0.234063 0.202346
237 1 0.933427 0.248107 0.0687318
256 1 0.722821 0.0829753 0.455053
358 2 0.873406 0.193158 0.299338
66 1 0.798695 0.208867 0.402024
49 1 0.896667 0.0761077 0.402455
200 1 0.808708 0.0614758 0.291592
141 1 0.695009 0.170404 0.295668
260 1 0.984034 0.226654 0.37824
268 1 1.00075 0.0993298 0.285857
353 2 0.80804 0.183857 0.659968
46 1 0.807031 0.0568701 0.663567
41 1 0.964468 0.0796394 0.653293
325 2 0.750558 0.229204 0.523278
3 1 0.850642 0.138559 0.533387
207 1 0.701831 0.154498 0.598101
67 1 0.936894 0.239212 0.673088
304 2 0.688724 0.115862 0.723756
263 1 0.853851 0.0649795 0.922766
57 1 0.739662 0.228569 0.757178
278 1 0.867294 0.157035 0.769069
239 1 0.745346 0.174627 0.933187
112 1 0.970737 0.0489823 0.814105
191 1 0.714364 0.0475269 0.830421
354 2 0.989396 0.116565 0.9158
36 1 0.889105 0.213714 0.910259
18 1 0.711293 0.0304868 0.997008
225 1 0.701859 0.423903 0.0485628
177 1 0.789071 0.284564 0.0415416
277 1 0.874151 0.412965 0.0768571
161 1 0.753138 0.39255 0.178851
313 2 0.867375 0.337344 0.177681
301 2 0.991852 0.364318 0.0152108
130 1 0.887559 0.469852 0.247331
51 1 0.772462 0.476893 0.344719
22 1 0.861116 0.338771 0.326344
154 1 0.989534 0.410019 0.47641
39 1 0.705076 0.328908 0.317529
153 1 0.762303 0.349664 0.467366
352 2 0.898948 0.458768 0.376028
196 1 0.78938 0.304129 0.62411
224 1 0.85999 0.473588 0.524076
72 1 0.925691 0.388703 0.63475
337 2 0.82097 0.412461 0.698913
266 1 0.729991 0.44744 0.616375
102 1 0.90684 0.275002 0.503374
5 1 0.671062 0.365222 0.726721
339 2 0.991252 0.318881 0.740955
269 1 0.856549 0.386893 0.921784
133 1 0.866704 0.316817 0.77868
96 1 0.721809 0.323746 0.887406
166 1 0.935487 0.447922 0.773171
170 1 0.781766 0.459476 0.80663
295 2 0.733519 0.442979 0.930133
93 1 0.961779 0.496969 0.973628
139 1 0.805944 0.538697 0.107128
195 1 0.787298 0.744824 0.222579
190 1 0.683185 0.648106 0.123553
345 2 0.840543 0.656675 0.14361
143 1 0.957005 0.541133 0.129492
262 1 0.96796 0.699452 0.130251
6 1 0.903378 0.635761 0.0174853
144 1 0.867238 0.57976 0.423826
356 2 0.730392 0.585014 0.399098
247 1 0.906614 0.614293 0.253394
44 1 0.810914 0.710914 0.463484
351 2 0.831928 0.684057 0.34202
43 1 0.966383 0.698833 0.415867
126 1 0.695107 0.717725 0.339928
251 1 0.996606 0.538198 0.367254
335 2 0.972199 0.550885 0.498446
63 1 0.759639 0.594308 0.266749
284 1 0.758786 0.593045 0.535696
135 1 0.798331 0.727612 0.619427
138 1 0.922463 0.67071 0.718856
159 1 0.916458 0.649772 0.566536
248 1 0.84417 0.549326 0.681524
52 1 0.983751 0.530434 0.628204
322 2 0.67797 0.720533 0.735576
360 2 0.669079 0.504088 0.727986
287 1 0.866622 0.567959 0.873084
315 2 0.84177 0.519223 0.983143
2 1 0.813458 0.728129 0.93442
124 1 0.730517 0.601995 0.779322
227 1 0.667358 0.724065 0.862163
140 1 0.738197 0.591029 0.948901
279 1 0.892473 0.843052 0.151236
192 1 0.730094 0.891308 0.101691
316 2 0.85015 0.97125 0.19138
199 1 0.90739 0.966771 0.0522526
187 1 0.947877 0.814011 0.00914414
146 1 0.797538 0.754655 0.0779361
302 2 0.9929 0.883436 0.233066
17 1 0.920032 0.953379 0.31107
238 1 0.806243 0.961032 0.423204
298 2 0.71783 0.827878 0.394703
230 1 0.832488 0.813143 0.368465
129 1 0.937848 0.764763 0.277787
193 1 0.752603 0.895073 0.270569
16 1 0.996248 0.85562 0.396167
37 1 0.912953 0.822655 0.526104
357 2 0.916948 0.974907 0.692524
319 2 0.906796 0.785897 0.66406
272 1 0.793598 0.882964 0.672807
178 1 0.885801 0.980885 0.558844
115 1 0.767666 0.846999 0.514702
258 1 0.705526 0.985293 0.575825
214 1 0.947287 0.871592 0.748305
288 1 0.713887 0.871928 0.839195
220 1 0.942809 0.930286 0.894352
56 1 0.798177 0.895642 0.964196
328 2 0.859617 0.847927 0.856737
91 1 0.837217 0.97245 0.789827
331 2 0.67117 0.890739 0.977757
201 1 0.811993 0.764855 0.779035
164 1 0.943256 0.755168 0.848741
ITEM: TIMESTEP
120000
ITEM: NUMBER OF ATOMS
360
ITEM: BOX BOUNDS pp pp pp
0.0000000000000000e+00 6.6943295008216896e+00
0.0000000000000000e+00 6.6943295008216896e+00
0.0000000000000000e+00 6.6943295008216896e+00
ITEM: ATOMS id type xs ys zs
358 2 0.0842827 0.128071 0.0429004
10 1 0.18998 0.0447547 0.115091
234 1 0.0627414 0.104849 0.175593
183 1 0.170322 0.201046 0.110529
125 1 0.300574 0.12992 0.053218
235 1 0.221937 0.138524 0.244456
251 1 0.0274556 0.254835 0.15896
340 2 0.308605 0.0327343 0.160991
17 1 0.0988617 0.0718925 0.319697
311 2 0.279516 0.0694039 0.342744
16 1 0.192742 0.156554 0.404288
244 1 0.0667589 0.221415 0.320382
73 1 0.0709156 0.113318 0.475612
339 2 0.299048 0.177299 0.484425
231 1 0.173042 0.188807 0.545909
107 1 0.0371088 0.193853 0.718283
233 1 0.204677 0.0201529 0.557035
318 2 0.235508 0.0738577 0.680259
136 1 0.187121 0.20666 0.693514
3 1 0.0673836 0.0830547 0.635097
265 1 0.330188 0.129231 0.60128
254 1 0.245943 0.0754163 0.832545
286 1 0.12041 0.216823 0.836169
341 2 0.145947 0.0628618 0.914432
4 1 0.195251 0.171146 0.96332
116 1 0.0277263 0.132388 0.924169
25 1 0.0932384 0.0646732 0.78983
326 2 0.252156 0.231795 0.838943
30 1 0.336185 0.179884 0.753739
330 2 0.0190247 0.00587088 0.885133
219 1 0.209955 0.352797 0.164293
184 1 0.0718848 0.393461 0.112345
321 2 0.301277 0.410312 0.0892649
206 1 0.192801 0.458729 0.0323124
300 2 0.177746 0.314736 0.0562434
280 1 0.299448 0.284549 0.0475218
270 1 0.153209 0.496955 0.211352
117 1 0.0657153 0.263729 0.0146346
313 2 0.150348 0.23737 0.227124
274 1 0.308297 0.502466 0.186119
131 1 0.251982 0.41862 0.30889
241 1 0.235558 0.271992 0.310896
264 1 0.275788 0.304142 0.456882
204 1 0.259949 0.467805 0.474395
236 1 0.143162 0.3593 0.414647
108 1 0.104565 0.358806 0.272419
335 2 0.0965021 0.473937 0.340875
303 2 0.0196574 0.45747 0.463793
329 2 0.32349 0.398254 0.561497
205 1 0.229723 0.443591 0.646934
348 2 0.176845 0.320271 0.549512
62 1 0.092467 0.336908 0.660045
209 1 0.115524 0.443246 0.549981
194 1 0.293614 0.281482 0.610505
147 1 0.0477557 0.284491 0.513916
166 1 0.103753 0.507331 0.716001
296 2 0.322828 0.351532 0.716083
213 1 0.196531 0.350711 0.766496
157 1 0.307132 0.449419 0.936478
294 2 0.104668 0.385168 0.970132
83 1 0.0652681 0.371937 0.847607
132 1 0.210009 0.320042 0.922722
189 1 0.167935 0.491536 0.845053
354 2 0.0144833 0.268634 0.903243
34 1 0.312699 0.471554 0.770064
301 2 0.207331 0.582914 0.095004
2 1 0.0848727 0.571833 0.0989431
212 1 0.324629 0.705282 0.164185
262 1 0.19998 0.635761 0.205008
338 2 0.099415 0.694553 0.148587
26 1 0.196875 0.712836 0.0701094
8 1 0.32348 0.572963 0.0472126
43 1 0.292051 0.721636 0.31578
85 1 0.0966345 0.556126 0.43895
97 1 0.211177 0.570753 0.344389
215 1 0.309808 0.614526 0.453117
332 2 0.188315 0.638516 0.463282
114 1 0.0306375 0.620115 0.246345
257 1 0.107083 0.725135 0.347053
172 1 0.0979005 0.661004 0.685573
33 1 0.253955 0.607827 0.738639
68 1 0.196397 0.573444 0.591235
95 1 0.112828 0.716567 0.535608
72 1 0.0251951 0.563828 0.584737
261 1 0.310214 0.669431 0.614888
201 1 0.108091 0.637828 0.83003
324 2 0.232985 0.65375 0.852317
94 1 0.184846 0.603117 0.970311
65 1 0.0644392 0.506107 0.94971
12 1 0.0341722 0.669827 0.984551
155 1 0.332038 0.702742 0.970286
221 1 0.156353 0.743072 0.915631
312 2 0.0380786 0.525914 0.829755
130 1 0.0716969 0.800158 0.0625744
79 1 0.0781714 0.992316 0.0196695
7 1 0.214544 0.872679 0.0994223
187 1 0.0923931 0.91977 0.166345
88 1 0.312947 0.837596 0.220402
149 1 0.165726 0.782408 0.214424
279 1 0.0191536 0.786459 0.223865
49 1 0.203326 1.00128 0.409201
247 1 0.0840923 0.907618 0.324441
199 1 0.213341 0.852123 0.384201
320 2 0.12684 0.817242 0.463769
37 1 0.0578568 0.960302 0.480789
159 1 0.00460168 0.816549 0.422588
100 1 0.248907 0.749846 0.498562
11 1 0.224202 0.969865 0.25603
1 1 0.157806 0.969176 0.689322
113 1 0.292801 0.841952 0.655128
253 1 0.15378 0.881152 0.565822
343 2 0.0377108 0.947209 0.636231
105 1 0.0404387 0.805133 0.643976
128 1 0.298314 0.903227 0.512297
319 2 -0.00583572 0.76073 0.531878
289 2 0.198954 0.751109 0.623461
109 1 0.141995 0.807116 0.743343
310 2 0.272124 0.897888 0.754956
81 1 0.275916 0.786451 0.823074
290 2 0.145248 0.873059 0.989095
176 1 0.0391417 0.869325 0.909898
271 1 0.172341 0.929424 0.835786
243 1 0.266587 0.845274 0.961865
173 1 0.236704 0.989751 0.977027
120 1 0.0128 0.934086 0.756162
217 1 0.342527 0.943903 0.850402
355 2 0.522117 0.0769804 0.0269638
277 1 0.644915 0.135011 0.038481
24 1 0.425994 0.061907 0.117046
193 1 0.546377 0.148866 0.159634
84 1 0.393561 0.187684 0.194759
141 1 0.443015 0.199 0.0452575
186 1 0.577904 -0.00531325 0.132103
347 2 0.508476 0.0519289 0.230128
122 1 0.342853 0.0495767 0.46377
333 2 0.438185 0.11911 0.431553
55 1 0.486409 0.153101 0.316217
78 1 0.568845 0.151904 0.456354
142 1 0.382986 0.0472393 0.268089
252 1 0.347047 0.184325 0.368361
223 1 0.490154 0.00716995 0.38594
150 1 0.630838 0.251053 0.263392
45 1 0.643343 0.00825658 0.447133
197 1 0.606841 0.0799405 0.622106
174 1 0.472174 0.0831794 0.54886
29 1 0.605567 0.237379 0.710893
59 1 0.477268 0.117953 0.719107
349 2 0.553319 0.189453 0.570302
207 1 0.347067 0.0296389 0.722024
165 1 0.442265 0.230628 0.519113
299 2 0.605837 0.230234 0.851609
314 2 0.377269 0.0880838 0.835975
38 1 0.536437 0.124012 0.913318
273 1 0.656348 0.109666 0.829437
168 1 0.344181 0.196393 0.91305
304 2 0.62799 0.0557175 0.955016
40 1 0.399237 0.0467778 0.965629
171 1 0.487285 0.245531 0.831795
228 1 0.483891 0.0117705 0.826499
63 1 0.608457 0.39939 0.210593
66 1 0.531636 0.306227 0.109892
39 1 0.565797 0.430383 0.025875
111 1 0.353095 0.350191 0.202294
54 1 0.426785 0.42236 0.0872643
249 1 0.492087 0.302215 0.255626
90 1 0.390551 0.335192 0.362991
123 1 0.423434 0.406706 0.492454
179 1 0.507658 0.430634 0.346112
323 2 0.637918 0.353704 0.463883
284 1 0.532031 0.292256 0.406974
13 1 0.374759 0.495615 0.349646
5 1 0.596852 0.474888 0.465263
64 1 0.562905 0.379537 0.709382
101 1 0.453792 0.257289 0.670176