ITEM: TIMESTEP
0
ITEM: NUMBER OF ATOMS
360
ITEM: BOX BOUNDS pp pp pp
0.0000000000000000e+00 6.6943295008216896e+00
0.0000000000000000e+00 6.6943295008216896e+00
0.0000000000000000e+00 6.6943295008216896e+00
ITEM: ATOMS id type xs ys zs
94 1 0.205268 0.205524 0.202408
288 1 0.287057 0.0812353 0.126757
221 1 0.130965 0.103643 0.102991
342 2 0.031006 0.164663 0.033124
217 1 0.232658 0.243065 0.0423007
118 1 0.16952 0.0347171 0.241843
7 1 0.0173209 0.0262612 0.0171754
259 1 0.0206666 0.00973207 0.242339
109 1 0.29782 0.106016 0.304348
144 1 0.0752345 0.175719 0.462812
214 1 0.171644 0.0647999 0.401688
69 1 0.0691624 0.161688 0.286203
231 1 0.19211 0.212667 0.361353
15 1 0.331306 0.0203208 0.431846
54 1 0.0816729 0.142422 0.612684
245 1 0.219283 0.22361 0.694091
149 1 0.223511 0.0768666 0.689406
64 1 0.217872 0.13879 0.533261
292 2 0.106279 0.0534847 0.505573
148 1 0.118557 0.132832 0.953085
176 1 0.219139 0.0332625 0.839653
131 1 0.111075 0.155989 0.775112
169 1 0.229402 0.225777 0.858964
224 1 0.27091 0.103029 0.968958
74 1 0.0105177 0.0537819 0.857907
343 2 0.161057 0.342694 0.0433058
29 1 0.0427739 0.389818 0.0816037
153 1 0.18551 0.348381 0.164257
22 1 0.265811 0.46469 0.20763
30 1 0.0326113 0.380015 0.238516
122 1 0.204979 0.465166 0.0546785
168 1 0.124935 0.493193 0.18183
146 1 0.330932 0.365352 0.0769822
134 1 0.0769571 0.254314 0.111091
291 2 0.122696 0.278938 0.261218
132 1 0.115029 0.45268 0.478152
84 1 0.278138 0.32482 0.434105
284 1 0.0586412 0.299832 0.366504
234 1 0.170426 0.395776 0.331463
219 1 0.308336 0.316723 0.265472
331 2 0.246509 0.459962 0.440181
311 2 0.0750499 0.488505 0.309364
38 1 0.0947439 0.418255 0.638149
42 1 0.0637986 0.287382 0.69654
192 1 0.235046 0.428887 0.575446
294 2 0.212308 0.34994 0.684687
52 1 0.240194 0.460466 0.731648
97 1 0.143569 0.287617 0.568154
31 1 0.303866 0.288139 0.572995
18 1 0.00148829 0.331579 0.529741
268 1 0.320543 0.344217 0.809008
86 1 0.245963 0.366849 0.944004
336 2 0.0779868 0.409693 0.94294
150 1 0.151356 0.351654 0.81089
270 1 0.110008 0.279961 0.946212
349 2 0.0919575 0.459723 0.764674
226 1 0.163681 0.497294 0.877643
347 2 0.32167 0.470731 0.977095
348 2 0.0582067 0.264813 0.822416
300 2 0.0869519 0.605894 0.214979
106 1 0.250516 0.718455 0.0718383
208 1 0.218269 0.623574 0.199631
329 2 0.170007 0.602632 0.0650684
191 1 0.00617254 0.622281 0.126564
139 1 0.101283 0.743393 0.162961
189 1 0.0719329 0.520483 0.0155773
71 1 0.206954 0.555209 0.328488
274 1 0.0501438 0.596515 0.43016
145 1 0.115931 0.682497 0.324972
35 1 0.295786 0.696401 0.350594
211 1 0.193366 0.604226 0.479859
307 2 0.323551 0.57778 0.27596
194 1 0.178983 0.671115 0.617701
128 1 0.12031 0.586494 0.73387
344 2 0.175421 0.536348 0.621001
252 1 0.0483436 0.562366 0.573545
185 1 0.304022 0.555229 0.618756
53 1 0.0120721 0.689162 0.680104
312 2 0.101569 0.706239 0.527874
222 1 0.258693 0.609612 0.79826
19 1 0.26219 0.585575 0.964844
193 1 0.121144 0.660584 0.859497
47 1 0.243852 0.727885 0.913149
181 1 0.0126676 0.533644 0.872103
56 1 0.0781894 0.682015 0.999515
110 1 0.13137 0.906195 0.156091
210 1 0.034878 0.869722 0.0380792
254 1 0.315578 0.939329 0.195688
275 1 0.183703 0.842123 0.007414
315 2 0.250214 0.870864 0.119866
223 1 0.31322 0.94184 0.0275195
121 1 0.23252 0.790846 0.232093
323 2 0.00490357 0.751797 0.0701271
318 2 0.0258976 0.967745 0.123475
65 1 0.168821 0.988272 0.0152404
62 1 0.238589 0.917793 0.32781
306 2 0.0999784 0.9618 0.340196
127 1 0.0607466 0.938206 0.461405
346 2 0.283374 0.818762 0.381069
1 1 0.10797 0.842417 0.298182
157 1 0.204011 0.907716 0.474419
91 1 0.0547093 0.789463 0.431339
228 1 0.199039 0.75275 0.455478
156 1 0.255925 0.814648 0.597235
99 1 0.292259 0.985907 0.576661
285 1 0.140676 0.9692 0.599138
338 2 0.135089 0.870099 0.689395
242 1 0.0904855 0.802623 0.596706
220 1 0.246968 0.909309 0.717299
63 1 0.101756 0.97947 0.742673
240 1 0.202591 0.763527 0.747289
339 2 0.137515 0.784232 0.877793
11 1 0.0532758 0.816441 0.761403
286 1 0.239083 0.878903 0.871054
232 1 0.0870877 0.91515 0.898816
354 2 0.305302 0.812163 0.999126
107 1 0.00522346 0.787666 0.919727
196 1 0.639661 0.201607 0.0621902
236 1 0.569381 0.0703793 0.0832627
241 1 0.518039 0.189642 0.163868
89 1 0.419446 0.113406 0.0389321
227 1 0.358588 0.226118 0.14158
158 1 0.442265 0.0482712 0.23673
304 2 0.517425 0.192304 0.0305924
250 1 0.609191 0.0462288 0.227151
263 1 0.561548 0.140585 0.338344
199 1 0.484644 0.0998418 0.468825
360 2 0.472326 0.213935 0.408106
261 1 0.436673 0.209223 0.279472
324 2 0.430671 0.0932971 0.356473
102 1 0.644927 0.129361 0.484765
147 1 0.342641 0.173843 0.442691
103 1 0.524509 0.106032 0.639513
248 1 0.370247 0.0145627 0.717367
125 1 0.356483 0.141358 0.620174
314 2 0.565831 0.0174343 0.537419
335 2 0.460339 0.167453 0.724924
162 1 0.617868 0.230871 0.599838
353 2 0.625179 0.0729466 0.73734
340 2 0.412919 0.130144 0.90464
32 1 0.358023 0.241505 0.965534
257 1 0.5028 0.0690699 0.800492
209 1 0.503677 0.0121789 0.949737
44 1 0.570377 0.143787 0.918705
244 1 0.345341 0.152541 0.784325
243 1 0.586768 0.196709 0.754361
25 1 0.472224 0.301519 0.0614511
23 1 0.454488 0.373866 0.200281
140 1 0.600744 0.352139 0.129652
188 1 0.479675 0.456752 0.0798089
316 2 0.575363 0.388596 0.0108223
321 2 0.55815 0.393202 0.399221
27 1 0.442705 0.335406 0.376302
4 1 0.565716 0.296319 0.291558
17 1 0.597826 0.266552 0.436075
12 1 0.558239 0.450869 0.279624
88 1 0.480633 0.490573 0.410121
43 1 0.350883 0.446432 0.349708
207 1 0.514647 0.382701 0.545614
290 2 0.512784 0.426631 0.6662
152 1 0.625639 0.356307 0.696231
119 1 0.370762 0.396881 0.65487
120 1 0.490222 0.285365 0.675517
319 2 0.360423 0.279756 0.714064
213 1 0.375568 0.428534 0.506765
13 1 0.61678 0.487575 0.600826
251 1 0.441718 0.250536 0.521949
267 1 0.41976 0.388331 0.934364
249 1 0.547934 0.289087 0.936914
269 1 0.45483 0.40359 0.781093
330 2 0.555609 0.321478 0.799113
277 1 0.554586 0.438261 0.893895
225 1 0.336779 0.49019 0.848277
92 1 0.446732 0.254381 0.825577
36 1 0.476085 0.623688 0.0906628
61 1 0.618055 0.655464 0.0225734
182 1 0.371306 0.675075 0.190841
137 1 0.551462 0.609849 0.214734
202 1 0.429796 0.521359 0.234041
327 2 0.585553 0.709249 0.136057
98 1 0.335214 0.55233 0.0922231
159 1 0.616952 0.512192 0.104584
66 1 0.444067 0.631874 0.330301
164 1 0.352817 0.569601 0.4562
320 2 0.567557 0.573627 0.340219
197 1 0.518869 0.640019 0.461747
278 1 0.587145 0.70171 0.331938
114 1 0.637881 0.50535 0.440802
313 2 0.444193 0.650203 0.625159
58 1 0.341364 0.707544 0.691791
51 1 0.572427 0.655227 0.628151
190 1 0.417625 0.553002 0.718823
264 1 0.478452 0.53586 0.568182
352 2 0.626492 0.600212 0.537912
212 1 0.337231 0.690403 0.541359
46 1 0.486229 0.746114 0.736444
309 2 0.513244 0.628706 0.749538
135 1 0.575239 0.508563 0.748029
28 1 0.563426 0.618882 0.87348
246 1 0.40873 0.648956 0.833889
326 2 0.503134 0.679301 0.980488
299 2 0.470831 0.522895 0.831951
260 1 0.427354 0.551687 0.961289
80 1 0.37751 0.693196 0.989046
355 2 0.567708 0.540965 0.981506
184 1 0.647813 0.674128 0.750341
105 1 0.448375 0.971262 0.090694
345 2 0.663248 0.825868 0.0908691
14 1 0.59749 0.904523 0.165899
195 1 0.530908 0.786987 0.0544773
293 2 0.468145 0.915834 0.236449
271 1 0.368587 0.815383 0.111435
187 1 0.501978 0.781145 0.216304
172 1 0.648257 0.930634 0.0203041
8 1 0.617604 0.993793 0.40171
82 1 0.57158 0.860476 0.320014
39 1 0.462229 0.772661 0.402505
166 1 0.466096 0.951829 0.373605
151 1 0.374013 0.84044 0.292438
301 2 0.358083 0.984967 0.311858
155 1 0.37143 0.861902 0.475035
165 1 0.546982 0.883469 0.496189
180 1 0.620755 0.752325 0.484375
178 1 0.397344 0.844182 0.654668
41 1 0.558159 0.958745 0.687924
34 1 0.6023 0.814823 0.632018
37 1 0.439376 0.978787 0.569814
50 1 0.482141 0.757636 0.560496
111 1 0.470608 0.916622 0.834095
356 2 0.569087 0.883721 0.925173
95 1 0.423574 0.862511 0.970885
201 1 0.615619 0.844007 0.788741
81 1 0.35388 0.994545 0.887371
351 2 0.34213 0.90609 0.789286
72 1 0.356673 0.793977 0.820152
160 1 0.517911 0.766405 0.884283
142 1 0.638112 0.989548 0.873774
163 1 0.8704 0.110899 0.0302175
60 1 0.720945 0.0409208 0.119291
279 1 0.819407 0.170949 0.191532
303 2 0.770006 0.187377 0.0684488
100 1 0.977352 0.124331 0.139576
341 2 0.744221 0.0490246 0.244944
170 1 0.670079 0.18479 0.214454
136 1 0.919775 0.248123 0.0792698
218 1 0.708758 0.10896 0.350486
302 2 0.973779 0.199686 0.373095
239 1 0.856024 0.151236 0.348644
90 1 0.908007 0.163968 0.487553
96 1 0.789256 0.0562472 0.483098
332 2 0.938495 0.114355 0.255261
204 1 0.989892 0.0697496 0.380452
67 1 0.864933 0.00734722 0.298939
358 2 0.681821 0.242523 0.335448
272 1 0.747986 0.24906 0.442715
141 1 0.771124 0.182419 0.567947
305 2 0.711055 0.172058 0.698249
6 1 0.937319 0.213373 0.62512
310 2 0.856538 0.0917325 0.591295
78 1 0.823502 0.120186 0.71642
76 1 0.967841 0.0720681 0.699593
206 1 0.965744 0.0283897 0.543271
49 1 0.667292 0.0743199 0.621678
322 2 0.8172 0.207594 0.815587
173 1 0.846283 0.0767245 0.871635
215 1 0.974468 0.193395 0.927395
265 1 0.704885 0.128385 0.823653
133 1 0.717335 0.0951615 0.966623
10 1 0.949516 0.220242 0.77994
295 2 0.68211 0.211321 0.933811
287 1 0.813659 0.233275 0.951709
171 1 0.708155 0.430922 0.21058
5 1 0.768702 0.467455 0.0708336
126 1 0.881097 0.395615 0.176912
328 2 0.850481 0.359686 0.0421822
179 1 0.762686 0.307952 0.129939
350 2 0.682245 0.307443 0.228899
205 1 0.929097 0.494995 0.0281403
289 2 0.995447 0.492694 0.159156
9 1 0.683122 0.375827 0.358138
298 2 0.915245 0.369661 0.30101
130 1 0.817423 0.415958 0.431376
216 1 0.983646 0.447705 0.394024
3 1 0.799109 0.315046 0.291062
124 1 0.91318 0.300083 0.409099
280 1 0.847045 0.486463 0.292432
59 1 0.944894 0.251359 0.252816
129 1 0.767544 0.417897 0.658055
167 1 0.84543 0.323919 0.557331
75 1 0.908868 0.468023 0.534168
266 1 0.937867 0.376405 0.667339
117 1 0.683325 0.35512 0.534633
325 2 0.869244 0.489207 0.652951
83 1 0.775854 0.272559 0.703438
123 1 0.95988 0.348656 0.954489
143 1 0.830664 0.429227 0.932414
16 1 0.685519 0.282483 0.826684
229 1 0.86232 0.474313 0.776287
57 1 0.852778 0.326307 0.824452
2 1 0.699763 0.443812 0.81139
68 1 0.992824 0.398457 0.817497
273 1 0.692218 0.347113 0.981739
26 1 0.727164 0.618085 0.155162
20 1 0.873972 0.553184 0.163337
255 1 0.868502 0.716255 0.149993
21 1 0.783915 0.605676 0.0159122
253 1 0.751748 0.745327 0.0512673
282 1 0.820873 0.669019 0.294196
337 2 0.966308 0.695224 0.388871
161 1 0.740419 0.654216 0.439513
55 1 0.686671 0.563131 0.292819
177 1 0.892087 0.594485 0.412381
174 1 0.972326 0.570963 0.276407
296 2 0.749039 0.526149 0.388876
33 1 0.969419 0.735154 0.275569
186 1 0.759827 0.52997 0.543439
101 1 0.731892 0.673467 0.615226
175 1 0.880975 0.613748 0.627266
333 2 0.845275 0.694758 0.536264
256 1 0.728263 0.553743 0.703842
113 1 0.974586 0.690984 0.518748
116 1 0.987807 0.517673 0.709993
108 1 0.807831 0.686228 0.764715
79 1 0.956176 0.676174 0.815544
48 1 0.869466 0.575132 0.894065
85 1 0.709026 0.648475 0.891238
317 2 0.676948 0.564579 0.815092
45 1 0.922755 0.673731 0.995468
230 1 0.68098 0.512856 0.949619
73 1 0.763801 0.882105 0.140023
200 1 0.886443 0.834516 0.043451
237 1 0.676652 0.765571 0.199073
70 1 0.882782 0.99788 0.139834
283 1 0.968392 0.862712 0.191014
183 1 0.709131 0.781526 0.349125
154 1 0.957808 0.876247 0.350799
112 1 0.796404 0.906212 0.418638
77 1 0.713559 0.923109 0.282335
308 2 0.898176 0.990126 0.430177
247 1 0.860737 0.763605 0.411085
235 1 0.839973 0.828331 0.267826
297 2 0.677172 0.865755 0.447595
281 1 0.830174 0.95537 0.598171
93 1 0.752232 0.824532 0.692436
115 1 0.894372 0.775352 0.625991
87 1 0.666812 0.94016 0.55638
138 1 0.988623 0.914708 0.649312
262 1 0.712244 0.98037 0.728538
104 1 0.93391 0.864848 0.503657
40 1 0.763794 0.79014 0.523905
203 1 0.860077 0.973962 0.746823
258 1 0.928093 0.915293 0.900496
198 1 0.766348 0.892963 0.859302
357 2 0.725929 0.770598 0.81048
334 2 0.999016 0.94076 0.799776
276 1 0.888702 0.81685 0.777585
359 2 0.763726 0.851791 0.986984
24 1 0.829792 0.760179 0.909904
238 1 0.808775 0.971266 0.981226
233 1 0.666722 0.788493 0.94049
ITEM: TIMESTEP
1000000
ITEM: NUMBER OF ATOMS
360
ITEM: BOX BOUNDS pp pp pp
0.0000000000000000e+00 6.6943295008216896e+00
0.0000000000000000e+00 6.6943295008216896e+00
0.0000000000000000e+00 6.6943295008216896e+00
ITEM: ATOMS id type xs ys zs
221 1 0.195125 0.0233632 0.186939
217 1 0.241573 0.160919 0.098556
231 1 0.157697 0.171449 0.2384
342 2 0.120852 0.111985 0.135439
163 1 0.0163281 0.0949099 0.0567031
219 1 0.32242 0.149898 0.237596
100 1 0.142309 0.0364089 0.0308992
346 2 0.320641 0.0239651 0.247347
127 1 0.171977 0.138102 0.483902
62 1 0.228186 0.0736522 0.351691
204 1 0.0355706 0.165559 0.364549
319 2 0.270397 0.0430922 0.466234
125 1 0.308254 0.199398 0.399978
325 2 0.177675 0.197687 0.374806
306 2 0.0870167 0.0657324 0.258324
91 1 0.112942 0.00543392 0.424471
294 2 0.251534 0.155247 0.611427
148 1 0.108245 0.106617 0.672849
164 1 0.213846 0.0297409 0.591335
157 1 0.048465 0.0216189 0.564324
118 1 0.0207982 0.173711 0.524345
31 1 0.224901 0.200908 0.732865
169 1 0.32786 0.0734367 0.685783
147 1 0.135027 0.240235 0.60823
74 1 0.000340849 0.0245698 0.751608
149 1 0.115428 0.132485 0.832095
329 2 0.182691 0.0518524 0.902116
270 1 0.26163 0.160694 0.86786
65 1 0.301837 0.0609215 0.978534
7 1 0.128055 0.183281 0.988026
232 1 0.214576 0.0202069 0.776734
292 2 0.0968424 0.221095 0.747187
123 1 0.127081 0.363163 0.00726211
19 1 0.292934 0.473717 0.0406787
291 2 0.187972 0.283051 0.0927012
22 1 0.0166237 0.42877 0.130189
153 1 0.314938 0.307737 0.126046
146 1 0.170976 0.380743 0.167245
134 1 0.0692219 0.258182 0.150508
234 1 0.0673697 0.425114 0.409068
30 1 0.234323 0.364364 0.410095
126 1 0.108355 0.317959 0.300372
69 1 0.112232 0.275022 0.455694
213 1 0.265185 0.283267 0.267349
331 2 0.208554 0.414496 0.29336
43 1 0.0973358 0.49064 0.260478
225 1 0.281771 0.475656 0.73282
97 1 0.0528975 0.348145 0.741832
266 1 0.08067 0.487157 0.67214
222 1 0.189193 0.3632 0.677151
144 1 0.141772 0.430092 0.534434
84 1 0.273495 0.260456 0.526477
119 1 0.302221 0.406017 0.563013
284 1 0.0117213 0.333546 0.586858
343 2 0.244297 0.399884 0.942047
224 1 0.2951 0.316625 0.813531
10 1 0.149031 0.295508 0.860452
29 1 0.164986 0.437951 0.819952
122 1 0.264343 0.268889 0.977521
226 1 0.0244663 0.382008 0.894758
106 1 0.129713 0.648298 0.0132432
56 1 0.0935085 0.636459 0.175559
98 1 0.255662 0.637831 0.105705
28 1 0.152008 0.507194 0.0890325
192 1 0.259207 0.515446 0.206391
304 2 0.299082 0.746713 0.140112
132 1 0.255517 0.654962 0.432737
35 1 0.121314 0.64029 0.324736
71 1 0.213816 0.524212 0.3634
18 1 0.105736 0.568892 0.478371
208 1 0.260382 0.68861 0.253777
194 1 0.121456 0.741225 0.495471
336 2 0.0169906 0.65285 0.46949
145 1 0.0240812 0.745492 0.257179
38 1 0.239168 0.54586 0.587732
252 1 0.101486 0.64193 0.620168
185 1 0.238567 0.719163 0.616098
301 2 0.168859 0.720829 0.738935
52 1 0.183571 0.590019 0.748907
2 1 0.325495 0.627987 0.699025
267 1 0.21336 0.550555 0.932699
354 2 0.243733 0.680858 0.95876
68 1 0.0593138 0.507812 0.969305
193 1 0.162599 0.692703 0.864373
200 1 0.0133752 0.681744 0.910601
190 1 0.305563 0.634569 0.851984
150 1 0.0483007 0.553024 0.827254
128 1 0.041916 0.701534 0.770149
1 1 0.170698 0.785078 0.184688
318 2 0.250488 0.987355 0.062686
275 1 0.328801 0.871445 0.106814
210 1 0.137929 0.904109 0.0912841
300 2 0.0534975 0.867849 0.191211
271 1 0.213892 0.77194 0.0357724
189 1 0.0224801 0.773723 0.0820369
259 1 0.026484 0.993722 0.177682
15 1 0.279686 0.896335 0.241172
70 1 -0.00100976 0.943607 0.0289946
121 1 0.238992 0.925975 0.399731
212 1 0.179465 0.781862 0.346286
312 2 0.309563 0.814631 0.341261
337 2 0.0963122 0.879622 0.393641
110 1 0.137877 0.926533 0.282148
66 1 0.277384 0.799732 0.486206
113 1 0.000139942 0.752241 0.401833
228 1 0.137826 0.897386 0.527589
63 1 0.119142 0.949306 0.693074
156 1 0.265582 0.893855 0.660916
53 1 0.101512 0.802314 0.652531
99 1 0.332823 0.952791 0.526286
107 1 0.0978887 0.817029 0.940527
11 1 0.180204 0.857582 0.795556
286 1 0.227177 0.911136 0.945386
24 1 0.025922 0.858567 0.784573
258 1 0.0919674 0.96006 0.881823
178 1 0.330297 0.773133 0.925208
240 1 0.310899 0.776148 0.773197
227 1 0.404845 0.183486 0.1092
44 1 0.563908 0.149568 0.128587
288 1 0.368831 0.0302584 0.130545
295 2 0.491875 0.0371047 0.120973
89 1 0.470488 0.0990673 0.237651
218 1 0.58581 0.015934 0.224938
209 1 0.608711 0.00923357 0.0578955
223 1 0.485146 0.0572937 -0.00297067
37 1 0.477799 0.148579 0.4252
199 1 0.562508 0.223038 0.311789
360 2 0.606779 0.113704 0.346765
90 1 0.620336 0.188701 0.466555
358 2 0.4154 0.17841 0.315463
109 1 0.373226 0.0489023 0.372156
102 1 0.634977 0.0393619 0.485465
49 1 0.463002 0.0107992 0.498851
64 1 0.513727 0.142879 0.582862
348 2 0.42423 0.0409529 0.610895
330 2 0.651293 0.134979 0.591774
290 2 0.395028 0.166912 0.642404
269 1 0.485033 0.0878062 0.721911
111 1 0.633639 0.13213 0.718206
214 1 0.348904 0.109848 0.535186
347 2 0.612156 0.216563 0.808883
92 1 0.396383 0.195821 0.787497
257 1 0.54014 0.125719 0.865235
220 1 0.37686 0.0617844 0.842084
356 2 0.563653 0.0140194 0.789318
176 1 0.394073 0.194956 0.94002
160 1 0.640182 0.0162702 0.898558
314 2 0.632021 0.117403 0.989875
25 1 0.54719 0.227556 0.996835
94 1 0.399993 0.440499 0.178266
335 2 0.659966 0.417943 0.205888
248 1 0.553615 0.448505 0.131216
188 1 0.476615 0.326496 0.103796
9 1 0.604178 0.292369 0.171296
241 1 0.412681 0.270438 0.232846
230 1 0.448502 0.498699 0.0326843
340 2 0.570853 0.384853 0.0206173
12 1 0.523933 0.386786 0.268552
88 1 0.357669 0.411001 0.337359
27 1 0.578025 0.348445 0.437517
23 1 0.44179 0.296587 0.382044
309 2 0.351377 0.339891 0.460139
4 1 0.66603 0.341342 0.315211
207 1 0.455452 0.419381 0.498384
162 1 0.556278 0.397234 0.626159
299 2 0.435961 0.362536 0.616631
305 2 0.526675 0.474059 0.746614
120 1 0.506919 0.261371 0.699529
321 2 0.552264 0.290692 0.550331
135 1 0.348703 0.284016 0.667101
251 1 0.424405 0.261099 0.530876
141 1 0.65778 0.265368 0.627562
32 1 0.392441 0.365189 0.979975
277 1 0.498808 0.432486 0.886138
289 2 0.630174 0.429274 0.863831
273 1 0.506929 0.2867 0.851559
152 1 0.648606 0.31272 0.918676
243 1 0.612557 0.360006 0.762481
260 1 0.342422 0.460694 0.880928
86 1 0.427933 0.389047 0.752738
159 1 0.395682 0.614562 0.16633
5 1 0.542754 0.605157 0.136312
327 2 0.489576 0.528071 0.223562
320 2 0.563141 0.709617 0.078686
233 1 0.666137 0.688884 0.164525
264 1 0.347888 0.532569 0.466906
352 2 0.600804 0.584813 0.376718
14 1 0.61722 0.713259 0.383101
202 1 0.389148 0.724943 0.384903
39 1 0.50448 0.627237 0.444686
140 1 0.362658 0.579438 0.319769
137 1 0.506439 0.654391 0.278784
26 1 0.605869 0.512761 0.273415
130 1 0.483879 0.499722 0.372634
101 1 0.642513 0.496858 0.699314
13 1 0.507327 0.616586 0.680307
278 1 0.390049 0.667988 0.548883
16 1 0.562602 0.53412 0.549766
201 1 0.556606 0.729119 0.562341
268 1 0.401505 0.518536 0.614268
246 1 0.453638 0.690902 0.831489
46 1 0.630968 0.702509 0.874177
184 1 0.422174 0.543294 0.785954
61 1 0.573861 0.564489 0.827349
80 1 0.523616 0.645339 0.976569
353 2 0.451577 0.557049 0.91107
47 1 0.371023 0.6168 0.99255
195 1 0.615078 0.506387 0.982189
351 2 0.654465 0.624673 0.763199
187 1 0.625246 0.820537 0.0327158
158 1 0.540669 0.785565 0.179965
254 1 0.504714 0.912943 0.0992734
151 1 0.383484 0.78222 0.230863
263 1 0.430246 0.94764 0.237663
182 1 0.426793 0.7487 0.0726022
105 1 0.660832 0.886134 0.158862
103 1 0.532115 0.992795 0.363758
34 1 0.393823 0.888013 0.391635
166 1 0.518399 0.806743 0.33547
281 1 0.577836 0.888092 0.489074
307 2 0.492538 0.757475 0.466048
293 2 0.567337 0.888834 0.254807
345 2 0.639571 0.767028 0.263416
324 2 0.527438 0.864385 0.617768
58 1 0.430264 0.83411 0.531007
155 1 0.417251 0.923452 0.657711
165 1 0.652439 0.867147 0.61728
50 1 0.441211 0.769392 0.683348
333 2 0.338026 0.809044 0.610956
129 1 0.564734 0.989106 0.645398
51 1 0.613977 0.754109 0.725265
197 1 0.534452 0.883859 0.751181
72 1 0.386377 0.934335 0.983954
85 1 0.619934 0.862531 0.869188
313 2 0.438519 0.817033 0.804279
81 1 0.486646 0.955448 0.881053
95 1 0.491582 0.802928 0.944751
339 2 0.568846 0.91597 0.968755
244 1 0.340121 0.913075 0.82413
344 2 0.432108 0.98046 0.766718
179 1 0.830396 0.173789 0.13857
96 1 0.880366 0.0265933 0.109825
170 1 0.70881 0.215665 0.0506107
250 1 0.722826 0.0407353 0.176951
316 2 0.961693 0.196459 0.083574
60 1 0.745306 0.0655163 0.0326099
261 1 0.704617 0.190757 0.229995
59 1 0.991047 0.137369 0.209481
279 1 0.869391 0.226194 0.296313
239 1 0.845953 0.082929 0.263066
206 1 0.884001 0.120619 0.435615
308 2 0.984014 0.042181 0.455733
303 2 0.774906 0.0466577 0.441752
17 1 0.754444 0.172123 0.380352
67 1 0.691936 0.021707 0.345134
77 1 0.988058 0.0325913 0.329377
302 2 0.861108 0.244347 0.447452
87 1 0.794278 0.143252 0.67356
83 1 0.763471 0.140486 0.53084
285 1 0.927223 0.0830556 0.636677
54 1 0.723352 0.00800463 0.609622
6 1 0.984483 0.214871 0.705262
276 1 0.840167 0.00839466 0.739193
124 1 0.886964 0.232932 0.579257
78 1 0.864589 0.168241 0.805913
142 1 0.802458 0.0493381 0.884389
322 2 0.748537 0.113804 0.780812
131 1 0.985941 0.233631 0.884194
133 1 0.695106 0.16264 0.888601
215 1 0.99124 0.0859601 0.898751
249 1 0.878196 0.164355 0.989051
229 1 0.739338 0.250536 0.769404
310 2 0.891589 0.0352861 0.976645
205 1 0.923154 0.305887 0.177266
196 1 0.779334 0.340673 0.208911
349 2 0.789714 0.458109 0.0549173
287 1 0.829454 0.329972 0.0496753
33 1 0.917797 0.465568 0.018042
177 1 0.865399 0.474167 0.163185
136 1 0.986973 0.312682 0.0233538
20 1 0.688114 0.380666 0.072458
280 1 0.831879 0.360967 0.36631
3 1 0.965887 0.307455 0.417985
274 1 0.973283 0.412509 0.282872
311 2 0.922311 0.436069 0.412118
272 1 0.732766 0.303283 0.486904
171 1 0.762204 0.48091 0.27614
298 2 0.989098 0.284673 0.291555
82 1 0.672267 0.467624 0.404159
114 1 0.704757 0.442223 0.551721
167 1 0.917387 0.43755 0.66295
245 1 0.794152 0.34901 0.646414
117 1 0.858221 0.38003 0.516801
317 2 0.87046 0.272382 0.710455
216 1 0.979861 0.500818 0.528124
57 1 0.8134 0.290804 0.906526
328 2 0.975491 0.45315 0.793906
116 1 0.755752 0.414223 0.781956
357 2 0.884247 0.390801 0.923708
143 1 0.754236 0.430184 0.940201
255 1 0.877953 0.498451 0.851699
42 1 0.901337 0.348543 0.80244
73 1 0.889409 0.729074 0.135012
326 2 0.779757 0.659351 0.0870771
282 1 0.814841 0.610175 0.19577
48 1 0.673547 0.666428 0.0167915
139 1 0.984661 0.608891 0.0619204
168 1 0.961003 0.575084 0.222824
21 1 0.69833 0.521652 0.141407
315 2 0.891061 0.51071 0.300391
36 1 0.891721 0.67631 0.324564
161 1 0.834012 0.528762 0.423627
237 1 0.711296 0.619532 0.31347
350 2 0.782507 0.690692 0.398518
186 1 0.883514 0.657063 0.489344
55 1 0.699307 0.605762 0.470277
211 1 0.979495 0.552257 0.379365
183 1 0.773499 0.751802 0.273988
93 1 0.822069 0.685172 0.633897
75 1 0.9546 0.596431 0.649462
175 1 0.836021 0.530237 0.570381
180 1 0.685426 0.641173 0.635672
181 1 0.801712 0.54233 0.712848
355 2 0.789363 0.662876 0.896514
253 1 0.737809 0.563533 0.842281
323 2 0.920112 0.576189 0.941294
45 1 0.897194 0.641559 0.809092
256 1 0.761953 0.726365 0.781655
191 1 0.793159 0.576901 0.993361
235 1 0.885436 0.714141 0.988277
341 2 0.808739 0.926618 0.115643
283 1 0.93025 0.870411 0.156179
236 1 0.766321 0.800662 0.100822
238 1 0.862153 0.869939 0.00604225
332 2 0.910682 0.970466 0.239684
8 1 0.797019 0.899654 0.240665
154 1 0.990249 0.8831 0.301342
174 1 0.978049 0.904844 0.467117
203 1 0.737541 0.916595 0.472798
115 1 0.85805 0.816709 0.389678
247 1 0.85262 0.964791 0.375039
172 1 0.67095 0.868993 0.323841
296 2 0.898881 0.794198 0.258848
242 1 0.973293 0.901241 0.628501
112 1 0.846495 0.815646 0.55012
138 1 0.858234 0.98689 0.531869
76 1 0.801314 0.873037 0.681904
297 2 0.708238 0.756697 0.624326
79 1 0.915857 0.771909 0.708459
40 1 0.708549 0.760623 0.502822
104 1 0.981415 0.748994 0.569758
265 1 0.678941 0.970548 0.747398
338 2 0.911045 0.896942 0.736327
359 2 0.69208 0.842677 0.758109
108 1 0.891126 0.812577 0.855044
262 1 0.768361 0.896013 0.840269
173 1 0.921245 0.954122 0.865003
334 2 0.967396 0.80573 0.967416
41 1 0.747413 0.779382 0.942102
198 1 0.725031 0.929143 0.985386
ITEM: TIMESTEP
2000000
ITEM: NUMBER OF ATOMS
360
ITEM: BOX BOUNDS pp pp pp
0.0000000000000000e+00 6.6943295008216896e+00
0.0000000000000000e+00 6.6943295008216896e+00
0.0000000000000000e+00 6.6943295008216896e+00
ITEM: ATOMS id type xs ys zs
109 1 0.196688 0.0469804 0.0860333
123 1 0.134916 0.215221 0.0390625
163 1 0.0528617 0.104715 0.13649
329 2 0.31567 0.172164 0.21436
37 1 0.171151 0.190198 0.193685
153 1 0.283135 0.219927 0.0854202
231 1 0.25397 0.0217255 0.227773
148 1 0.264568 0.192648 0.331601
7 1 0.13835 0.102945 0.321124
59 1 0.103867 0.237672 0.388605
290 2 0.179525 0.124574 0.446566
27 1 0.281666 0.0370211 0.408557
194 1 0.120516 0.00599168 0.469276
77 1 0.0188412 0.020428 0.268162
134 1 0.0108736 0.184461 0.263613
67 1 0.00384188 0.110149 0.415694
220 1 0.235889 0.0951091 0.560415
348 2 0.08767 0.0405429 0.59433
79 1 0.0894132 0.168883 0.53037
232 1 0.145716 0.146157 0.667913
149 1 0.287512 0.221373 0.622555
295 2 0.24087 0.16579 0.745399
138 1 0.0400598 0.24708 0.740947
270 1 0.231879 0.0755781 0.829181
225 1 0.122729 0.0804004 0.957844
217 1 0.27435 0.118174 0.973367
147 1 0.0823728 0.0839565 0.791255
173 1 0.171777 0.211999 0.84365
164 1 0.0145689 0.189706 0.889486
92 1 0.320839 0.228824 0.833762
140 1 0.284355 0.300238 0.219834
166 1 0.294967 0.444174 0.13064
280 1 0.0631981 0.380313 0.117359
205 1 0.200212 0.34534 0.0459631
340 2 0.174172 0.327949 0.162979
22 1 0.165384 0.455924 0.220822
325 2 0.0140566 0.44519 0.221191
292 2 0.154137 0.462397 0.087668
316 2 0.0579506 0.243541 0.154149
323 2 0.214753 0.489095 0.339724
28 1 0.0747301 0.45671 0.347765
119 1 0.199069 0.34227 0.346348
155 1 0.28259 0.418851 0.457033
71 1 0.125537 0.363047 0.479466
208 1 0.326563 0.456627 0.281488
171 1 0.068049 0.331153 0.259867
62 1 0.233718 0.254909 0.482227
69 1 0.130659 0.462518 0.603969
184 1 0.261293 0.379201 0.595944
29 1 0.119334 0.302695 0.620104
68 1 0.26674 0.459385 0.746125
84 1 0.223582 0.30163 0.737314
10 1 0.0879027 0.323344 0.932326
97 1 0.108516 0.388741 0.784001
146 1 0.232901 0.382549 0.879434
356 2 0.23842 0.245377 0.945077
33 1 0.100999 0.474613 0.969805
106 1 0.268819 0.476484 0.99193
168 1 0.0555838 0.555234 0.094383
107 1 0.0352936 0.684193 -0.0180978
1 1 0.199971 0.579051 0.143501
187 1 0.0185382 0.702354 0.174496
98 1 0.268164 0.697732 0.20978
343 2 0.315689 0.55558 0.189486
161 1 0.0433637 0.569756 0.244674
212 1 0.147959 0.730607 0.0998659
66 1 0.189819 0.687769 0.435077
158 1 0.303345 0.562903 0.412792
56 1 0.18588 0.610289 0.298579
113 1 0.0326336 0.712255 0.425693
345 2 0.290074 0.673692 0.342969
216 1 0.16158 0.52095 0.458186
338 2 0.0255918 0.549203 0.671563
328 2 0.287052 0.643387 0.511932
354 2 0.247133 0.575782 0.704187
201 1 0.170756 0.643998 0.623721
132 1 0.0321905 0.592344 0.551189
252 1 0.133063 0.538722 0.738974
128 1 0.0336927 0.675823 0.704098
202 1 0.289763 0.532813 0.572036
185 1 0.074953 0.744984 0.567011
260 1 0.225687 0.537146 0.868089
178 1 0.318762 0.665386 0.915495
268 1 0.109361 0.645086 0.852418
346 2 0.076279 0.496138 0.856636
95 1 0.241978 0.675319 0.775763
271 1 0.178967 0.613209 0.991583
221 1 0.169008 0.885273 0.0730309
100 1 0.313738 0.790137 0.0399237
215 1 0.0514176 0.978118 0.0557802
15 1 0.246563 0.844415 0.193082
236 1 0.0517206 0.884179 0.19388
275 1 0.32817 0.954416 0.105854
320 2 0.144006 0.981761 0.187915
45 1 0.0180513 0.818384 0.0529961
157 1 0.114474 0.844916 0.452264
58 1 0.253889 0.814072 0.350207
249 1 0.153031 0.939573 0.316498
301 2 0.217424 0.915222 0.438849
342 2 0.0190325 0.92597 0.445278
35 1 0.111645 0.75385 0.282807
156 1 0.259482 0.779145 0.536001
278 1 0.162139 0.808356 0.678493
330 2 0.308659 0.884443 0.588753
34 1 0.188743 0.91917 0.563476
344 2 0.062454 0.888355 0.570477
91 1 0.0921764 0.955742 0.68733
86 1 0.30614 0.807205 0.715495
244 1 0.249366 0.981741 0.692317
288 1 0.0753293 0.903788 0.924371
336 2 0.0395501 0.927726 0.795476
228 1 0.248559 0.945867 0.956706
11 1 0.0739609 0.800186 0.800342
210 1 0.178605 0.77253 0.935264
283 1 0.170303 0.921629 0.809622
306 2 0.217875 0.801658 0.806088
81 1 0.343835 0.958223 0.829781
360 2 0.0129609 0.790207 0.915986
188 1 0.504922 0.0832595 0.206318
96 1 0.634152 0.0503002 0.0913509
286 1 0.514944 0.127478 0.0359831
227 1 0.434956 0.222665 0.241697
72 1 0.369892 0.0985428 0.119985
314 2 0.412115 0.205157 0.0668772
318 2 0.64044 0.168342 0.157665
257 1 0.539337 0.238608 0.139282
261 1 0.664434 0.203535 0.0376422
65 1 0.589349 0.172943 0.300403
17 1 0.509207 0.136707 0.426242
331 2 0.508686 0.0614659 0.331306
214 1 0.354818 0.156144 0.470781
126 1 0.382584 0.0883492 0.30651
319 2 0.411354 0.19435 0.360676
332 2 0.653272 0.0983607 0.394874
14 1 0.635271 0.0287709 0.258744
49 1 0.441274 0.000289439 0.423882
229 1 0.600559 0.188831 0.557202
64 1 0.438814 0.191617 0.606942
70 1 0.504208 0.0348539 0.645764
99 1 0.370803 0.00937624 0.566419
347 2 0.551707 0.16004 0.663676
321 2 0.48195 0.0990036 0.538312
39 1 0.618344 0.0493985 0.520566
127 1 0.359849 0.0951457 0.711765
303 2 0.637766 0.0387951 0.648504
255 1 0.640319 0.242211 0.716799
25 1 0.571956 0.205521 0.890317
308 2 0.347604 0.101953 0.866025
133 1 0.601773 0.0894689 0.768702
105 1 0.468104 0.037365 0.82157
176 1 0.421053 0.179109 0.932612
89 1 0.399689 0.0300325 0.975508
165 1 0.469128 0.182138 0.763589
240 1 0.5451 -0.00849775 0.947576
235 1 0.436662 0.437173 0.0193913
122 1 0.403574 0.332142 0.127661
300 2 0.523234 0.391894 0.12363
237 1 0.62682 0.468121 0.197504
272 1 0.64828 0.353038 0.0922243
241 1 0.516388 0.308959 -0.00298411
182 1 0.437008 0.507569 0.165536
192 1 0.358198 0.310772 0.359525
299 2 0.409679 0.415425 0.418411
5 1 0.610489 0.423663 0.367741
94 1 0.511895 0.280119 0.393205
159 1 0.459173 0.500162 0.337193
4 1 0.658266 0.267867 0.428385
199 1 0.6477 0.318095 0.256262
245 1 0.524642 0.396516 0.487152
213 1 0.493622 0.377661 0.257958
90 1 0.389017 0.314557 0.701373
31 1 0.385426 0.299012 0.5061
207 1 0.550044 0.32805 0.630107
125 1 0.407829 0.427825 0.595039