
include ${pot}.lmp
include kalj.lmp
units lj
atom_style atomic

variable dimensions equal 3
variable density equal 1.2
variable fraca equal 0.8

dimension ${dimensions}
dimension 3
read_restart ${prevbasename}.final.lmprestart.${prevsteps}
read_restart equil/kalj_T0.7_n360_v300_180000_2.final.lmprestart.${prevsteps}
read_restart equil/kalj_T0.7_n360_v300_180000_2.final.lmprestart.180000
Reading restart file ...
  restart file = 15 Sep 2022, LAMMPS = 15 Sep 2022
  restoring atom style atomic from restart
  orthogonal box = (0 0 0) to (6.6943295 6.6943295 6.6943295)
  3 by 4 by 4 MPI processor grid
  restoring pair style lj/cut from restart
  360 atoms
  read_restart CPU = 0.039 seconds
include ${pot}_particles.lmp
include kalj_particles.lmp
mass * 1.0 #  set mass 1.0 for all types

pair_style lj/cut 2.5
#pair coeffs type1 type2 eps sigma
pair_coeff 1 1 1.0 1.00 2.5
pair_coeff 1 2 1.5 0.80 2.0
pair_coeff 2 2 0.5 0.88 2.2
pair_modify shift yes
reset_timestep 0

print "Setting up annealing run"
Setting up annealing run
dump 1 all atom ${dumptime} ${basename}.lammpstrj
dump 1 all atom 70000 ${basename}.lammpstrj
dump 1 all atom 70000 equil/kalj_T0.65_n360_v300_350000_2.lammpstrj
#dump_modify 1 sort id scale no

restart ${restarttime} ${basename}.restart
restart 350000 ${basename}.restart
restart 350000 equil/kalj_T0.65_n360_v300_350000_2.restart
restart ${steps} ${basename}.final.lmprestart
restart 350000 ${basename}.final.lmprestart
restart 350000 equil/kalj_T0.65_n360_v300_350000_2.final.lmprestart

thermo ${thermotime}
thermo 70000
timestep ${timestep}
timestep 0.003

neighbor 0.5 bin
neigh_modify every 1 delay ${neighborstep} check yes
neigh_modify every 1 delay 25 check yes

velocity all create ${temp} ${id} dist gaussian
velocity all create 0.65 ${id} dist gaussian
velocity all create 0.65 2 dist gaussian
fix 1 all nvt temp ${temp} ${temp} ${taut}
fix 1 all nvt temp 0.65 ${temp} ${taut}
fix 1 all nvt temp 0.65 0.65 ${taut}
fix 1 all nvt temp 0.65 0.65 0.3
Resetting global fix info from restart file:
  fix style: nvt, fix ID: 1
run ${steps}
run 350000
Generated 0 of 1 mixed pair_coeff terms from geometric mixing rule
All restart file global fix info was re-assigned
Neighbor list info ...
  update: every = 1 steps, delay = 25 steps, check = yes
  max neighbors/atom: 2000, page size: 100000
  master list distance cutoff = 3
  ghost atom cutoff = 3
  binsize = 1.5, bins = 5 5 5
  1 neighbor lists, perpetual/occasional/extra = 1 0 0
  (1) pair lj/cut, perpetual
      attributes: half, newton on
      pair build: half/bin/atomonly/newton
      stencil: half/bin/3d
      bin: standard
Per MPI rank memory allocation (min/avg/max) = 3.961 | 3.961 | 3.961 Mbytes
   Step          Temp          E_pair         E_mol          TotEng         Press     
         0   0.65          -6.4721389      0             -5.4998472      6.7356915    
     70000   0.64912817    -6.5794762      0             -5.6084886      6.1171682    
    140000   0.67098568    -6.6413403      0             -5.6376576      5.6045724    
    210000   0.6502227     -6.5814752      0             -5.6088504      5.9590296    
    280000   0.59798358    -6.6474618      0             -5.752978       5.4915813    
    350000   0.60721572    -6.6246605      0             -5.716367       5.8062149    
Loop time of 16.6627 on 48 procs for 350000 steps with 360 atoms

Performance: 5444509.182 tau/day, 21005.051 timesteps/s, 7.562 Matom-step/s
99.6% CPU use with 48 MPI tasks x 1 OpenMP threads

MPI task timing breakdown:
Section |  min time  |  avg time  |  max time  |%varavg| %total
---------------------------------------------------------------
Pair    | 1.0637     | 1.1354     | 1.2206     |   3.2 |  6.81
Neigh   | 0.19388    | 0.20474    | 0.22014    |   1.2 |  1.23
Comm    | 12.43      | 12.793     | 13.325     |   6.8 | 76.78
Output  | 0.0071156  | 0.0071189  | 0.0071713  |   0.0 |  0.04
Modify  | 1.6299     | 2.0944     | 2.48       |  15.9 | 12.57
Other   |            | 0.4282     |            |       |  2.57

Nlocal:            7.5 ave          10 max           5 min
Histogram: 3 0 8 0 12 0 14 0 9 2
Nghost:         576.25 ave         590 max         557 min
Histogram: 2 0 2 7 7 5 8 11 2 4
Neighs:        433.312 ave         596 max         260 min
Histogram: 3 1 5 5 10 5 9 4 5 1

Total # of neighbors = 20799
Ave neighs/atom = 57.775
Neighbor list builds = 10986
Dangerous builds = 406
Total wall time: 0:00:16
