ITEM: TIMESTEP
0
ITEM: NUMBER OF ATOMS
360
ITEM: BOX BOUNDS pp pp pp
0.0000000000000000e+00 6.6943295008216896e+00
0.0000000000000000e+00 6.6943295008216896e+00
0.0000000000000000e+00 6.6943295008216896e+00
ITEM: ATOMS id type xs ys zs
85 1 0.178447 0.0316962 0.00714162
201 1 0.224368 0.162388 0.0728529
93 1 0.257607 0.129605 0.219408
327 2 0.151914 0.0557307 0.170202
267 1 0.0961121 0.171223 0.189658
46 1 0.288871 0.00148068 0.130255
148 1 0.024902 0.0601162 0.10103
147 1 0.093921 0.0470709 0.408362
343 2 0.147761 0.122197 0.319829
28 1 0.15187 0.184384 0.439301
272 1 0.266864 0.109646 0.376039
251 1 0.0428443 0.209135 0.328693
281 1 0.027135 0.0401812 0.267807
145 1 0.19363 0.24776 0.303853
295 2 0.3145 0.0210755 0.273797
165 1 0.188985 0.00881305 0.281633
192 1 0.112649 0.103949 0.715745
21 1 0.0966245 0.0622295 0.562896
116 1 0.267311 0.103365 0.643004
219 1 0.152069 0.20182 0.601663
41 1 0.00397066 0.198685 0.654696
68 1 0.321847 0.207431 0.539105
321 2 0.222286 0.0969455 0.509564
208 1 0.194605 0.18611 0.817543
9 1 0.295646 0.219714 0.926376
297 2 0.228417 0.0702389 0.772332
136 1 0.100749 0.0693624 0.873225
209 1 0.278262 0.0784719 0.892617
320 2 0.192427 0.14752 0.941827
94 1 0.046333 0.218189 0.813796
25 1 0.070453 0.152138 0.997999
96 1 0.124354 0.443221 0.103225
150 1 0.270872 0.451546 0.063419
222 1 0.233908 0.316684 0.0772018
130 1 0.0785141 0.294488 0.0902933
235 1 0.105901 0.356152 0.245215
347 2 0.229704 0.387714 0.193196
144 1 0.321507 0.310576 0.226913
298 2 0.326214 0.348415 0.0070944
359 2 0.187684 0.260157 0.177763
325 2 0.0354987 0.423666 0.464231
18 1 0.302782 0.271288 0.391999
236 1 0.108859 0.334708 0.403919
22 1 0.229627 0.402509 0.329658
156 1 0.161583 0.461729 0.499645
6 1 0.324316 0.427226 0.443739
128 1 0.0881368 0.487921 0.348701
149 1 0.0345007 0.481582 0.591001
233 1 0.0455983 0.301617 0.542027
266 1 0.13185 0.37553 0.654791
360 2 0.258066 0.436799 0.591409
212 1 0.280343 0.271835 0.68868
304 2 0.145475 0.2551 0.712385
287 1 0.21637 0.315833 0.515937
355 2 0.270954 0.317055 0.843851
1 1 0.212834 0.415158 0.929668
206 1 0.128366 0.342648 0.807001
3 1 0.144148 0.272998 0.94813
334 2 0.0923903 0.395052 0.915617
283 1 0.264146 0.415502 0.755136
277 1 0.00195709 0.288817 0.948408
260 1 0.173653 0.588931 0.100715
353 2 0.0883696 0.705321 0.133265
242 1 0.0176953 0.567567 0.117306
197 1 0.219875 0.50563 0.222849
173 1 0.327871 0.600953 0.10986
314 2 0.234322 0.639391 0.200586
80 1 0.108823 0.621148 0.242548
294 2 0.0752618 0.501169 0.217412
89 1 0.32843 0.742789 0.215477
160 1 0.0821279 0.676971 0.000671176
335 2 0.117465 0.625155 0.366271
91 1 0.229976 0.561557 0.363291
330 2 0.232262 0.670905 0.450361
158 1 0.209896 0.716164 0.329297
70 1 0.103278 0.595626 0.490633
344 2 0.000484901 0.678812 0.493887
228 1 0.114941 0.740394 0.454687
257 1 0.176577 0.532743 0.64745
171 1 0.19507 0.68402 0.581302
40 1 0.0395856 0.738651 0.600751
313 2 0.0870435 0.608786 0.611048
138 1 0.110328 0.664266 0.72615
189 1 0.285502 0.552306 0.517783
299 2 0.293693 0.619411 0.628809
224 1 0.00364851 0.524407 0.732079
105 1 0.240702 0.745988 0.712674
99 1 0.192501 0.606147 0.898721
199 1 0.0336339 0.608072 0.858154
32 1 0.268236 0.698283 0.988614
332 2 0.279968 0.520987 0.85144
119 1 0.267627 0.602173 0.750595
13 1 0.0948994 0.51195 0.965264
26 1 0.13788 0.504929 0.79479
159 1 0.310445 0.840659 0.0978834
232 1 0.025909 0.814312 0.0949243
134 1 0.134958 0.925113 0.150209
14 1 0.200969 0.752505 0.13229
161 1 0.175342 0.832935 0.00572857
57 1 0.308381 0.944837 0.376774
296 2 0.0908337 0.926482 0.284864
137 1 0.136315 0.885862 0.389395
311 2 0.0404637 0.796797 0.362247
215 1 0.271906 0.809135 0.446719
174 1 0.231791 0.855509 0.265574
59 1 0.0827723 0.795237 0.250582
97 1 0.080823 0.885008 0.52957
67 1 0.193832 0.97429 0.67741
220 1 0.224533 0.850083 0.594833
223 1 0.00957718 0.9775 0.674737
162 1 0.218152 0.976518 0.501559
315 2 0.310511 0.951414 0.630281
323 2 0.234626 0.871317 0.745405
38 1 0.19954 0.937507 0.86143
316 2 0.090055 0.856148 0.881272
193 1 0.29866 0.930323 0.975397
255 1 0.171839 0.761831 0.866082
348 2 0.0976199 0.986867 0.776496
254 1 0.0231276 0.76122 0.827684
190 1 0.0656582 0.938045 0.991856
214 1 0.111164 0.856975 0.752549
262 1 0.316474 0.980829 0.761751
284 1 0.504295 0.17767 0.0498876
127 1 0.571381 0.0539112 0.133336
263 1 0.429006 0.102329 0.171123
39 1 0.362941 0.230649 0.0940647
37 1 0.366075 0.0780138 0.0262155
196 1 0.665631 0.169246 0.0561449
188 1 0.521861 0.141011 0.416442
292 2 0.645616 0.126125 0.382378
207 1 0.408951 0.196029 0.313482
357 2 0.394569 0.162875 0.43838
184 1 0.42597 0.0417043 0.350988
139 1 0.624089 0.235526 0.468117
7 1 0.578995 0.126227 0.273506
237 1 0.477387 0.171795 0.555505
47 1 0.586907 0.0732793 0.652858
75 1 0.615773 0.234622 0.635622
61 1 0.404859 0.0402043 0.636461
20 1 0.494205 0.160159 0.724083
301 2 0.381541 0.187081 0.651125
115 1 0.495232 0.0191226 0.510784
65 1 0.650696 0.0849709 0.507685
274 1 0.347499 0.0623462 0.50173
108 1 0.59021 0.160438 0.926853
167 1 0.564896 0.0288596 0.824611
24 1 0.421601 0.151821 0.906261
51 1 0.645668 0.173071 0.785121
247 1 0.526984 0.0270775 0.97861
187 1 0.339854 0.137548 0.766283
354 2 0.512735 0.217849 0.840616
333 2 0.444432 0.00205714 0.760845
112 1 0.369977 0.461554 0.185988
44 1 0.537687 0.402069 0.199972
312 2 0.562994 0.444707 0.0843867
34 1 0.43724 0.381107 0.0773013
111 1 0.588938 0.320026 0.0548837
186 1 0.646152 0.285923 0.185821
77 1 0.489181 0.267478 0.180463
279 1 0.547885 0.413717 0.394071
278 1 0.557207 0.273451 0.333357
202 1 0.4268 0.386698 0.305408
191 1 0.459094 0.30195 0.456066
318 2 0.336274 0.48152 0.323178
45 1 0.489072 0.310262 0.667572
210 1 0.633241 0.384029 0.720506
182 1 0.361183 0.365317 0.581758
303 2 0.395543 0.414431 0.724753
146 1 0.587904 0.367775 0.543871
118 1 0.502266 0.464102 0.67103
168 1 0.454032 0.472109 0.521883
69 1 0.49344 0.407902 0.8067
4 1 0.467986 0.2956 0.936932
64 1 0.570779 0.434016 0.939587
270 1 0.405036 0.283387 0.792228
269 1 0.614256 0.299544 0.859406
2 1 0.370792 0.416669 0.885675
349 2 0.445715 0.479748 0.974814
175 1 0.60015 0.685912 0.0962142
76 1 0.458584 0.657644 0.180988
141 1 0.606555 0.552209 0.18783
252 1 0.467028 0.538128 0.092711
226 1 0.644425 0.544438 0.0282036
282 1 0.467494 0.675814 0.0201201
317 2 0.351992 0.722692 0.0788925
205 1 0.402868 0.566653 0.40689
213 1 0.56167 0.584542 0.402747
155 1 0.512154 0.73231 0.421095
106 1 0.587525 0.679562 0.279362
129 1 0.481162 0.535653 0.276484
322 2 0.463398 0.655312 0.322516
227 1 0.359329 0.710622 0.375946
291 2 0.607899 0.508302 0.309972
48 1 0.34244 0.600457 0.263172
200 1 0.419735 0.664401 0.696497
53 1 0.602962 0.525849 0.557677
11 1 0.463877 0.623639 0.53978
101 1 0.577742 0.62735 0.686324
169 1 0.61901 0.684613 0.538616
56 1 0.339927 0.503143 0.653682
35 1 0.336764 0.732469 0.565967
164 1 0.34562 0.552475 0.959499
62 1 0.506718 0.571021 0.910577
350 2 0.504387 0.64767 0.793404
114 1 0.371512 0.682004 0.869789
84 1 0.410328 0.545852 0.790845
351 2 0.597134 0.647972 0.962398
102 1 0.635554 0.669317 0.830876
285 1 0.615199 0.517336 0.818877
23 1 0.509163 0.741266 0.898211
55 1 0.65543 0.804318 0.185196
117 1 0.603703 0.89688 0.0741293
248 1 0.474691 0.808412 0.133894
229 1 0.454159 0.957717 0.104591
198 1 0.371265 0.915126 0.237195
337 2 0.536957 0.786069 0.0161085
126 1 0.612905 0.826042 0.333724
345 2 0.41204 0.797074 0.473726
50 1 0.448279 0.891871 0.393574
216 1 0.471902 0.792327 0.281471
16 1 0.588015 0.998175 0.377531
339 2 0.34815 0.817567 0.324513
83 1 0.560023 0.875363 0.492116
5 1 0.518849 0.950741 0.253789
92 1 0.359456 0.842185 0.691517
352 2 0.625359 0.961295 0.585629
110 1 0.387038 0.906857 0.540313
259 1 0.497741 0.922259 0.644371
170 1 0.58303 0.786187 0.739345
29 1 0.493474 0.771529 0.590226
131 1 0.640234 0.931046 0.720597
176 1 0.662586 0.83297 0.609071
100 1 0.437447 0.861011 0.988832
273 1 0.413763 0.988063 0.888039
10 1 0.575883 0.890927 0.924005
275 1 0.475436 0.88535 0.803353
231 1 0.657385 0.759161 0.965306
245 1 0.337007 0.83083 0.851851
342 2 0.441094 0.769333 0.772387
151 1 0.942243 0.185985 0.083247
293 2 0.973879 0.162222 0.204699
256 1 0.801988 0.215592 0.154974
172 1 0.706802 0.0982951 0.20671
195 1 0.8847 0.0804137 0.191551
49 1 0.809414 0.246384 0.00287063
152 1 0.83075 0.0830847 0.0413736
326 2 0.770269 0.0178679 0.143471
19 1 0.682814 0.0187287 0.00467523
140 1 0.920315 0.0718196 0.376899
30 1 0.708839 0.222074 0.319597
249 1 0.76136 0.0500991 0.365691
58 1 0.869269 0.193105 0.30408
194 1 0.795615 0.174437 0.43644
264 1 0.991827 0.148613 0.49628
217 1 0.891643 0.0956587 0.641016
261 1 0.748276 0.153353 0.610169
185 1 0.880073 0.238016 0.720295
308 2 0.682005 0.0592709 0.729392
246 1 0.827382 0.0499912 0.511393
125 1 0.747645 0.136237 0.910609
310 2 0.840312 0.0535573 0.8663
181 1 0.897896 0.190304 0.874349
265 1 0.956918 0.0744129 0.782501
250 1 0.947326 0.0450303 0.945685
98 1 0.791665 0.117685 0.765434
113 1 0.819731 0.476461 0.21352
305 2 0.725674 0.303309 0.0877861
286 1 0.680349 0.428111 0.130619
36 1 0.82656 0.378903 0.0926042
319 2 0.938438 0.314915 0.0847408
17 1 0.979779 0.424648 0.0293092
31 1 0.973999 0.4296 0.17801
234 1 0.952871 0.28778 0.213961
73 1 0.818293 0.482108 0.366809
290 2 0.847654 0.355081 0.394864
240 1 0.964113 0.407146 0.353353
203 1 0.723198 0.334122 0.426419
71 1 0.941019 0.273832 0.426293
122 1 0.698172 0.414334 0.283671
82 1 0.820165 0.331229 0.258776
33 1 0.676439 0.493391 0.433631
329 2 0.858488 0.374214 0.630385
72 1 0.745097 0.419091 0.571504
178 1 0.753833 0.29483 0.684133
331 2 0.710438 0.293359 0.565472
328 2 0.758454 0.430109 0.700018
268 1 0.865436 0.263229 0.553119
166 1 0.993842 0.345697 0.689681
183 1 0.873412 0.49973 0.649893
66 1 0.914741 0.409101 0.515298
336 2 0.945247 0.310611 0.831585
280 1 0.721683 0.385263 0.983991
104 1 0.870175 0.389933 0.930215
120 1 0.77932 0.273647 0.848357
211 1 0.730552 0.425085 0.841033
87 1 0.865917 0.390065 0.767172
258 1 0.992628 0.439137 0.841895
307 2 0.684208 0.251002 0.953685
52 1 0.969147 0.702044 0.211961
81 1 0.856808 0.609819 0.140776
306 2 0.738009 0.573393 0.133564
143 1 0.932187 0.702357 0.0383159
218 1 0.741125 0.685991 0.191738
271 1 0.774449 0.66236 0.0260999
346 2 0.903421 0.506444 0.0851576
95 1 0.795497 0.507502 0.0251847
204 1 0.847212 0.667842 0.307418
225 1 0.956572 0.552898 0.27066
79 1 0.864802 0.659778 0.462063
302 2 0.764317 0.584874 0.4191
154 1 0.991861 0.682542 0.368354
74 1 0.727639 0.571866 0.291654
60 1 0.958244 0.540049 0.432351
239 1 0.687971 0.696461 0.385395
338 2 0.864875 0.52889 0.519749
179 1 0.956683 0.61316 0.587308
356 2 0.837276 0.625367 0.671141
78 1 0.763362 0.590411 0.556806
103 1 0.706698 0.698652 0.657639
142 1 0.720634 0.54429 0.692746
253 1 0.937185 0.670155 0.727278
43 1 0.859808 0.734756 0.600665
133 1 0.890861 0.680993 0.898994
27 1 0.735765 0.572119 0.895163
157 1 0.93619 0.553453 0.967885
221 1 0.868003 0.537381 0.807819
341 2 0.767248 0.696934 0.904928
107 1 0.789604 0.672739 0.779955
180 1 0.754139 0.909183 0.0954245
163 1 0.911893 0.946775 0.0647518
15 1 0.853895 0.787365 0.152227
340 2 0.731818 0.768835 0.0812228
109 1 0.973896 0.908053 0.198939
63 1 0.8336 0.931192 0.230981
276 1 0.835825 0.91409 0.394298
135 1 0.960738 0.802384 0.460336
54 1 0.705086 0.954121 0.493203
121 1 0.772312 0.802062 0.29498
12 1 0.926372 0.815108 0.306907
358 2 0.690982 0.910683 0.370884
324 2 0.84859 0.772084 0.392501
132 1 0.741454 0.808063 0.469987
288 1 0.997847 0.928958 0.367015
123 1 0.679368 0.95153 0.254541
88 1 0.783927 0.849687 0.693933
153 1 0.949966 0.83515 0.699718
309 2 0.884367 0.973605 0.61782
86 1 0.84895 0.885447 0.538155
300 2 0.964373 0.843945 0.576566
241 1 0.966543 0.98452 0.508924
230 1 0.757151 0.990159 0.63732
42 1 0.823591 0.952649 0.940081
177 1 0.862236 0.814968 0.825132
243 1 0.860784 0.96522 0.762904
289 2 0.707822 0.888792 0.980995
124 1 0.973129 0.829761 0.960864
238 1 0.711864 0.833533 0.839992
90 1 0.993483 0.925837 0.842036
8 1 0.818526 0.796467 0.985523
244 1 0.717743 0.98747 0.836034
ITEM: TIMESTEP
3000000
ITEM: NUMBER OF ATOMS
360
ITEM: BOX BOUNDS pp pp pp
0.0000000000000000e+00 6.6943295008216896e+00
0.0000000000000000e+00 6.6943295008216896e+00
0.0000000000000000e+00 6.6943295008216896e+00
ITEM: ATOMS id type xs ys zs
267 1 0.114289 0.0491379 0.166431
148 1 0.0119734 0.231265 0.183893
201 1 0.185045 0.170304 0.100537
347 2 0.219895 0.0402012 0.0950967
305 2 0.0486913 0.161337 0.0875772
251 1 0.275982 0.109188 0.20291
25 1 0.0982781 0.0627942 0.0210075
182 1 0.280906 0.113628 0.365114
357 2 0.142926 0.129703 0.39031
5 1 0.0918895 0.0206401 0.328058
28 1 0.138254 0.172062 0.270667
152 1 0.00467274 0.162971 0.356329
293 2 0.259175 0.235853 0.270711
41 1 0.0995215 0.206208 0.509545
332 2 0.0206985 0.113499 0.236723
120 1 0.10841 0.0481155 0.482091
140 1 0.0444349 0.119532 0.617976
329 2 0.221745 0.256911 0.531919
283 1 0.242639 0.110738 0.509906
297 2 0.0780056 0.0830082 0.725626
192 1 0.181576 0.0431613 0.675931
149 1 0.173671 0.207047 0.651973
359 2 0.302688 0.006256 0.586289
56 1 0.325229 0.229414 0.620204
301 2 0.302063 0.200453 0.754917
217 1 0.13226 0.199514 0.937936
136 1 0.0759701 0.199983 0.776771
124 1 0.0846942 0.0513055 0.86729
219 1 0.214462 0.110793 0.815389
165 1 0.259456 0.117438 0.964396
320 2 0.00623255 0.19998 0.888233
233 1 0.25627 0.394159 0.106466
196 1 0.12527 0.312396 0.0734248
130 1 0.0189375 0.395568 0.15195
144 1 0.312449 0.262189 0.161091
89 1 0.136678 0.490289 0.0726058
185 1 0.0146862 0.414851 0.0062495
277 1 0.178735 0.319945 0.22701
34 1 0.280397 0.268642 0.0181655
235 1 0.0936161 0.468847 0.262708
6 1 0.231563 0.432813 0.33335
240 1 0.125963 0.380099 0.420202
291 2 0.0860034 0.271568 0.333781
179 1 0.213776 0.26407 0.385461
183 1 0.00366654 0.503454 0.395078
63 1 0.272465 0.366559 0.480089
212 1 0.227014 0.451295 0.656133
206 1 0.130471 0.338849 0.731857
360 2 0.241538 0.320621 0.665658
344 2 0.0623579 0.43163 0.640839
287 1 0.14516 0.34348 0.573214
71 1 -0.00914558 0.272441 0.630384
168 1 0.108888 0.476923 0.539664
112 1 0.176457 0.390973 0.953277
138 1 0.0477951 0.322265 0.870706
26 1 0.235303 0.435109 0.819998
94 1 0.217039 0.270642 0.834251
1 1 0.32353 0.482073 0.962417
150 1 0.0716581 0.489796 0.881661
242 1 0.0918699 0.602894 0.15765
227 1 0.194402 0.700744 0.218291
173 1 0.240263 0.629058 0.0743658
340 2 0.0225545 0.69492 0.0964532
252 1 0.234941 0.521821 0.195958
197 1 0.23684 0.546757 0.467518
48 1 0.299598 0.671524 0.365738
225 1 0.178001 0.589363 0.325939
128 1 0.0422997 0.64311 0.311535
253 1 0.0821312 0.615865 0.475599
11 1 0.149288 0.726762 0.395859
325 2 0.202376 0.670691 0.501327
35 1 0.296894 0.686898 0.596675
160 1 0.185444 0.725009 0.721204
91 1 0.158866 0.604993 0.610561
214 1 0.0310549 0.703805 0.700596
55 1 0.0107092 0.545587 0.625495
32 1 0.268725 0.602023 0.727659
96 1 0.117485 0.516253 0.735088
66 1 0.12115 0.745567 0.565947
316 2 0.232521 0.683481 0.834007
245 1 0.215203 0.565818 0.905164
282 1 0.104228 0.640785 0.822284
14 1 0.225339 0.726069 0.953583
300 2 0.00943676 0.622612 0.91537
322 2 0.307115 0.615494 0.981661
17 1 0.104651 0.62783 1.00432
54 1 0.0685194 0.897336 0.189079
323 2 0.172682 0.822248 0.231826
338 2 0.0214035 0.958355 0.0785844
156 1 0.271011 0.816527 0.141226
153 1 0.168364 0.920324 0.0683154
229 1 0.214207 0.949799 0.23714
134 1 0.128413 0.76679 0.0762719
52 1 0.0531045 0.753945 0.20392
46 1 0.324757 0.973878 0.125381
158 1 0.108433 0.863392 0.328811
68 1 0.220782 0.955393 0.397711
284 1 0.275873 0.818869 0.31356
162 1 0.241066 0.797258 0.48957
81 1 0.0802279 0.884091 0.478291
315 2 0.332036 0.86897 0.438456
116 1 0.197062 0.935966 0.566009
259 1 0.29146 0.93208 0.713783
90 1 0.0153991 0.851646 0.612241
343 2 0.229307 0.789781 0.618857
299 2 0.0764184 0.97464 0.601795
110 1 0.340461 0.865232 0.576031
198 1 0.13561 0.879872 0.698496
13 1 0.212706 0.83151 0.823998
308 2 0.200282 0.981148 0.790645
261 1 0.0564691 0.91667 0.953921
92 1 0.314333 0.862496 0.979969
303 2 0.0937835 0.776849 0.796407
327 2 0.168564 0.840734 0.95259
3 1 0.198472 0.971113 0.927576
289 2 0.0636407 0.935658 0.819496
190 1 0.0649139 0.7707 0.918248
333 2 0.33381 0.85848 0.859781
273 1 0.32349 1.00422 0.863473
93 1 0.47049 0.211127 0.160789
339 2 0.524559 0.132717 0.0426739
109 1 0.597384 0.0939104 0.167514
266 1 0.439378 0.0664832 0.205765
222 1 0.359925 0.13233 0.0744008
193 1 0.649393 0.0342208 0.0362663
7 1 0.613033 0.225073 0.0849504
272 1 0.473643 0.00198453 0.0657534
247 1 0.445348 0.232318 0.00961957
263 1 0.441264 0.0931552 0.395413
352 2 0.499279 0.141132 0.28901
30 1 0.603093 0.122867 0.392808
286 1 0.598872 0.217498 0.269146
24 1 0.385693 0.202942 0.292657
290 2 0.662591 0.235111 0.389838
249 1 0.526462 0.0171849 0.490117
21 1 0.359615 0.223006 0.461312
237 1 0.496038 0.252261 0.395372
318 2 0.531574 0.14811 0.502701
65 1 0.541369 0.0105191 0.314092
262 1 0.404773 0.107529 0.558713
224 1 0.441125 0.20319 0.740674
69 1 0.527958 0.109642 0.653124
178 1 0.651085 0.105237 0.540834
187 1 0.337462 0.0877461 0.712509
119 1 0.478918 0.24406 0.574317
127 1 0.4381 0.103099 0.91966
87 1 0.585108 0.185858 0.944334
275 1 0.600977 0.0209971 0.897317
9 1 0.576155 0.144706 0.791893
47 1 0.482121 0.0263636 0.796699
67 1 0.355318 0.204187 0.869059
342 2 0.352621 -0.00111063 0.998367
302 2 0.647531 0.407601 0.0611701
337 2 0.442242 0.476648 0.210549
248 1 0.40188 0.363346 0.098323
319 2 0.527328 0.324398 0.104299
139 1 0.639884 0.337356 0.181205
77 1 0.53535 0.462282 0.117428
355 2 0.454567 0.445758 -0.00603288
22 1 0.350296 0.403032 0.232762
86 1 0.631344 0.47332 0.245942
31 1 0.602243 0.356999 0.352297
274 1 0.363308 0.336971 0.36223
278 1 0.384859 0.495629 0.454883
95 1 0.630577 0.477429 0.460638
121 1 0.494477 0.384214 0.481852
33 1 0.484625 0.470948 0.342275
115 1 0.487742 0.330264 0.251043
79 1 0.615969 0.392582 0.606354
45 1 0.365364 0.383253 0.59846
125 1 0.490033 0.386665 0.69483
270 1 0.367662 0.483273 0.752506
213 1 0.603362 0.280261 0.719008
84 1 0.485224 0.499274 0.592523
132 1 0.61603 0.265302 0.510071
122 1 0.591566 0.502326 0.968513
167 1 0.497459 0.287565 0.861846
200 1 0.595733 0.394216 0.817725
164 1 0.468888 0.460742 0.872933
64 1 0.548599 0.359312 0.990534
20 1 0.374166 0.347741 0.934399
310 2 0.629526 0.263365 0.851244
285 1 0.33819 0.33725 0.770309
349 2 0.445927 0.613123 0.130193
102 1 0.566831 0.619011 0.0830962
189 1 0.516283 0.737416 0.16149
141 1 0.371541 0.71345 0.0490437
2 1 0.362175 0.509154 0.106183
205 1 0.352289 0.662103 0.208106
218 1 0.50743 0.583184 0.245697
346 2 0.562485 0.7048 0.294116
29 1 0.613937 0.597339 0.350994
191 1 0.454799 0.62704 0.401357
328 2 0.501477 0.528246 0.463034
18 1 0.341069 0.542597 0.30856
313 2 0.341184 0.616898 0.48755
215 1 0.585352 0.633445 0.501063
312 2 0.60595 0.547235 0.588542
105 1 0.430896 0.625272 0.723861
40 1 0.440313 0.639348 0.557969
114 1 0.571038 0.68539 0.653771
118 1 0.563714 0.528125 0.72369
171 1 0.329608 0.543377 0.599611
348 2 0.522166 0.741785 0.542416
159 1 0.358088 0.588951 0.86151
226 1 0.533659 0.613289 0.861226
231 1 0.51581 0.746435 0.797114
43 1 0.651351 0.668889 0.784408
76 1 0.330136 0.747418 0.756245
155 1 0.443994 0.574999 0.99284
100 1 0.518325 0.714867 0.981305
38 1 0.450777 0.847815 0.0730368
207 1 0.588736 0.924913 0.143701
314 2 0.392341 0.78057 0.166105
147 1 0.431444 0.905208 0.228499
184 1 0.649734 0.76838 0.0865256
16 1 0.604287 0.895136 0.420748
188 1 0.451872 0.892167 0.379581
70 1 0.571744 0.839347 0.265153
117 1 0.362391 0.988936 0.471374
73 1 0.54429 0.758862 0.412254
74 1 0.391583 0.752977 0.465666
216 1 0.350393 0.986976 0.315665
83 1 0.43141 0.757944 0.303513
241 1 0.567982 0.853557 0.671805
238 1 0.49472 0.866485 0.532746
61 1 0.428014 0.974008 0.636125
220 1 0.439627 0.778688 0.639595
324 2 0.562969 0.981687 0.607128
243 1 0.6456 0.781335 0.520047
51 1 0.617486 1.00734 0.720478
39 1 0.446256 0.938543 0.930647
131 1 0.572304 0.890812 0.822541
37 1 0.581922 0.887631 0.996443
292 2 0.489711 0.824342 0.906357
106 1 0.632169 0.781093 0.902308
170 1 0.428591 0.873789 0.76797
209 1 0.378035 0.74078 0.903567
309 2 0.646128 0.792649 0.777804
108 1 0.744921 0.164924 0.0166142
208 1 0.871815 0.218592 0.0858429
42 1 0.743891 0.182443 0.167107
85 1 0.766786 0.0318212 0.130601
8 1 0.96322 0.0801005 0.124126
353 2 0.856932 0.0976119 0.0465319
268 1 0.894206 0.164517 0.241864
57 1 0.86752 0.0731053 0.385645
180 1 0.727335 0.0250191 0.416921
111 1 0.739391 0.131481 0.305595
174 1 0.753644 0.180269 0.456825
296 2 0.98701 0.0369986 0.42646
307 2 0.825628 0.0486649 0.250004
195 1 0.95589 -0.00146051 0.250626
321 2 0.915554 0.0719243 0.641496
281 1 0.805143 0.0721889 0.563004
142 1 0.705986 0.136976 0.703509
88 1 0.853735 0.197489 0.66093
331 2 0.738006 0.014153 0.663677
264 1 0.942274 0.169462 0.499293
223 1 0.951658 0.113271 0.764545
230 1 0.718872 0.163479 0.862094
244 1 0.801958 0.0495775 0.914995
58 1 0.861169 0.191603 0.903757
62 1 0.969082 0.105985 0.956415
336 2 0.82454 0.166731 0.785384
176 1 0.81959 0.0280656 0.767028
350 2 0.696987 0.0315372 0.808053
19 1 0.779364 0.444965 0.193831
181 1 0.874412 0.327688 0.200996
256 1 0.876512 0.453333 0.090998
44 1 0.769499 0.332828 0.0970692
304 2 0.918472 0.342932 0.0736724
80 1 0.928845 0.504169 0.240651
210 1 0.741096 0.35292 0.436824
354 2 0.816365 0.39193 0.30812
154 1 0.879242 0.416799 0.414381
36 1 0.748191 0.489499 0.346899
239 1 0.741785 0.282408 0.283091
146 1 0.870894 0.267364 0.356165
145 1 1.00006 0.294085 0.44388
236 1 0.987732 0.357556 0.306254
72 1 0.723914 0.416456 0.714317
246 1 0.861179 0.360433 0.680334
12 1 0.957656 0.408301 0.548566
202 1 0.763007 0.443738 0.562009
186 1 0.726704 0.283343 0.614621
82 1 0.847915 0.294524 0.514884
221 1 0.852444 0.423652 0.827432
298 2 0.71905 0.407644 0.853507
234 1 0.851678 0.334778 0.953337
98 1 0.768825 0.293463 0.805728
250 1 0.922492 0.281113 0.798056
330 2 0.956795 0.405755 0.892542
143 1 0.760206 0.466309 0.958133
269 1 0.691627 0.314896 0.94989
104 1 0.995971 0.255637 1.0086
194 1 0.99364 0.420546 0.760046
23 1 0.817603 0.594186 0.0426217
345 2 0.72311 0.663781 0.0864153
133 1 0.925697 0.666566 0.209274
163 1 0.787209 0.595722 0.201242
99 1 0.970552 0.571024 0.0735653
271 1 0.818438 0.750429 0.129312
279 1 0.687597 0.527865 0.0939312
123 1 0.662109 0.678764 0.224345
294 2 0.957904 0.640549 0.439498
288 1 0.851363 0.720173 0.442089
358 2 0.752018 0.61956 0.319902
326 2 0.922485 0.718949 0.32198
129 1 0.727343 0.597424 0.463367
203 1 0.878883 0.602357 0.341715
78 1 0.692522 0.730758 0.390753
204 1 0.801182 0.751527 0.289101
335 2 0.923828 0.645726 0.652718
166 1 0.812656 0.649668 0.740689
101 1 0.701054 0.566392 0.670479
169 1 0.812217 0.663962 0.589041
311 2 0.673435 0.666201 0.579354
135 1 0.888825 0.548726 0.498512
257 1 0.966396 0.704837 0.554325
211 1 0.861868 0.50792 0.666118
258 1 0.801496 0.607009 0.88265
157 1 0.948953 0.592206 0.777325
260 1 0.927871 0.525927 0.929385
151 1 0.67019 0.620733 0.966397
199 1 0.920933 0.725129 0.841903
341 2 0.777651 0.526631 0.779686
4 1 0.666398 0.523137 0.837665
107 1 0.93319 0.706967 0.990574
15 1 0.859479 0.904475 0.155839
113 1 0.973525 0.820559 0.0760761
126 1 0.719343 0.839706 0.200559
306 2 0.855298 0.841445 0.0445507
50 1 0.743784 0.899188 0.0424469
177 1 0.910074 0.977663 0.0255253
53 1 0.750004 0.870472 0.445858
137 1 0.958372 0.924657 0.383487
59 1 0.821829 0.938276 0.310331
356 2 0.854363 0.825883 0.381112
295 2 0.696641 0.848454 0.332211
103 1 0.683099 0.989718 0.265905
60 1 1.00777 0.763554 0.417628
172 1 0.936261 0.829898 0.261875
317 2 0.845909 0.971792 0.4622
10 1 0.842909 0.933282 0.642831
49 1 0.721752 0.895974 0.728383
351 2 0.767215 0.828952 0.582242
232 1 0.870181 0.781902 0.680649
97 1 0.878372 0.850133 0.51637
75 1 0.683556 0.936949 0.570345
265 1 0.95709 0.994829 0.547242
276 1 0.987681 0.975136 0.701601
27 1 0.709176 0.753315 0.667755
280 1 0.771399 0.77411 0.818741
175 1 0.727237 0.926799 0.873446
254 1 0.862481 0.855786 0.914327
255 1 0.982968 0.839271 0.776793
334 2 0.847786 0.875343 0.789024
228 1 0.946205 0.979561 0.858057
161 1 0.773877 0.746513 0.973546
ITEM: TIMESTEP
6000000
ITEM: NUMBER OF ATOMS
360
ITEM: BOX BOUNDS pp pp pp
0.0000000000000000e+00 6.6943295008216896e+00
0.0000000000000000e+00 6.6943295008216896e+00
0.0000000000000000e+00 6.6943295008216896e+00
ITEM: ATOMS id type xs ys zs
201 1 0.0808905 0.102454 0.0547376
25 1 0.227178 0.0295307 0.0755332
109 1 0.199094 0.184585 0.127997
148 1 0.0437563 0.16263 0.219658
347 2 0.301196 0.243441 0.157036
222 1 0.305481 0.0102749 0.228938
267 1 0.0958458 0.0132614 0.192672
152 1 0.0627055 0.031142 0.360314
41 1 0.264078 0.215196 0.40936
296 2 0.167544 0.090778 0.409238
28 1 0.303377 0.0542589 0.380465
63 1 0.0889509 0.194167 0.365039
236 1 0.188035 0.115781 0.279571
299 2 0.306996 0.173321 0.530313
68 1 0.234995 0.0594096 0.523387
149 1 0.276583 0.134759 0.651711
297 2 0.159735 0.122997 0.608843
264 1 0.153734 0.208165 0.50688
223 1 0.0353142 0.190066 0.619784
120 1 0.0795589 0.0562415 0.513381
198 1 0.0518657 0.0361103 0.665152
196 1 0.0951216 0.200348 0.917274
217 1 0.126095 0.040685 0.91631
247 1 0.254228 0.0136781 0.803822
209 1 0.263247 0.115742 0.944602
94 1 0.308981 0.179694 0.795143
62 1 0.158944 0.129149 0.76989
359 2 0.11486 0.00347327 0.767494
248 1 0.159321 0.34456 0.13926
233 1 0.259667 0.452273 0.0144941
19 1 0.0891878 0.484217 0.223398
18 1 0.227993 0.47897 0.171554
181 1 0.103584 0.488198 0.0682643
277 1 0.0648745 0.251711 0.0752717
266 1 0.326828 0.349415 0.218222
130 1 0.133342 0.495535 0.367065
235 1 0.0610141 0.322096 0.255592
22 1 0.207577 0.266579 0.26685
6 1 0.162063 0.350507 0.405407
278 1 0.279338 0.441064 0.327869
339 2 0.283406 0.361981 0.437015
287 1 0.0297914 0.305252 0.481373
197 1 0.236201 0.462616 0.491021
291 2 0.192457 0.390176 0.252369
283 1 0.274966 0.299551 0.546988
168 1 0.167344 0.427573 0.641254
171 1 0.312298 0.448627 0.625515
352 2 0.144874 0.338512 0.546891
206 1 0.303154 0.320293 0.711539
71 1 0.038548 0.339924 0.629367
56 1 0.0802528 0.462394 0.509878
55 1 0.00671194 0.490067 0.638809
140 1 0.177143 0.263183 0.663522
112 1 0.0972947 0.362013 0.952147
245 1 0.248116 0.446503 0.793475
138 1 0.201699 0.286172 0.830098
322 2 0.222925 0.389884 0.907469
250 1 0.0883677 0.417027 0.778405
136 1 0.0557286 0.258289 0.772233
119 1 0.213553 0.271781 0.99685
89 1 0.144288 0.497539 0.902179
227 1 0.301779 0.707768 0.077313
314 2 0.295111 0.603474 0.1603
173 1 0.168964 0.638143 0.134154
80 1 0.0172649 0.630716 0.172131
48 1 0.288481 0.731967 0.242852
128 1 0.0886284 0.636298 0.310425
225 1 0.236384 0.587158 0.28682
35 1 0.196785 0.630575 0.43968
343 2 0.0171787 0.540518 0.42148
253 1 0.0441332 0.636193 0.494014
160 1 0.175668 0.706802 0.704914
214 1 0.033511 0.645688 0.658855
91 1 0.16792 0.580434 0.586826
76 1 0.29085 0.672168 0.556676
32 1 0.275364 0.58941 0.706884
96 1 0.136792 0.548667 0.741377
66 1 0.149389 0.735095 0.550644
14 1 0.281042 0.701819 0.813862
156 1 0.129394 0.654956 0.856901
212 1 0.330373 0.516313 0.897077
327 2 0.233343 0.569392 0.827145
2 1 0.229077 0.603058 0.987424
150 1 0.0471347 0.6257 0.994959
153 1 0.0959429 0.935853 0.041315
158 1 0.204361 0.897361 0.19497
165 1 0.275585 0.867212 0.0541753
242 1 0.128319 0.789578 0.0722911
252 1 0.103943 0.75842 0.21941
195 1 0.00478595 0.882721 0.173475
281 1 0.0165081 0.902054 0.459378
229 1 0.309141 0.899313 0.331725
137 1 0.0856843 0.878154 0.313343
5 1 0.182163 0.946736 0.432163
331 2 0.128114 0.831625 0.453151
357 2 0.188185 0.988612 0.289338
162 1 0.267543 0.811214 0.488314
11 1 0.194841 0.773689 0.361743
97 1 0.040308 0.765232 0.400636
81 1 0.137429 0.884794 0.57628
348 2 0.262067 0.938485 0.558364
259 1 0.273835 0.824129 0.632815
303 2 0.0803544 0.775397 0.663511
116 1 0.147515 0.880646 0.733539
219 1 0.204187 0.998918 0.652972
338 2 0.16932 0.794249 0.816787
192 1 0.042875 0.932361 0.834837
100 1 0.178548 0.896927 0.909377
273 1 0.288213 0.858613 0.795867
199 1 0.0574754 0.784159 0.930914
105 1 0.315967 0.969207 0.944892
190 1 0.21242 0.753417 0.946181
255 1 0.0370463 0.753588 0.782849
251 1 0.444416 0.0837624 0.213625
286 1 0.60051 0.169423 0.221193
207 1 0.483768 0.124469 0.0433608
147 1 0.65064 0.0570657 0.129179
50 1 0.344705 0.136913 0.0909506
24 1 0.627974 0.198152 0.0587392
345 2 0.595457 0.058638 0.0186517
115 1 0.333774 0.167043 0.259734
65 1 0.479071 0.195174 0.311371
179 1 0.40955 0.173226 0.450791
182 1 0.451982 0.0443189 0.370496
85 1 0.592363 0.0398434 0.297427
263 1 0.570113 0.145524 0.422452
47 1 0.389037 0.0585826 0.557785
187 1 0.565588 0.118792 0.639829
117 1 0.657809 0.00864257 0.584879
170 1 0.430668 0.0985793 0.706154
125 1 0.400055 0.214135 0.612571
61 1 0.528916 0.0154001 0.516481
295 2 0.65858 0.124863 0.515977
318 2 0.518372 0.222675 0.670401
127 1 0.537342 0.0532976 0.801973
64 1 0.554114 0.159583 0.910148
93 1 0.382962 0.208303 0.937966
220 1 0.39007 0.077246 0.866359
49 1 0.602163 0.195249 0.771012
316 2 0.379743 0.0684477 0.989979
224 1 0.444026 0.247437 0.772137
37 1 0.496559 0.00864734 0.954365
272 1 0.578696 0.312935 0.165648
218 1 0.338524 0.331418 0.0613768
269 1 0.498921 0.27516 0.0232271
139 1 0.473979 0.422669 0.158739
31 1 0.636495 0.461376 0.130392
312 2 0.348212 0.45013 0.131873
319 2 0.556349 0.388499 0.0578198
111 1 0.43487 0.254003 0.170126
355 2 0.505107 0.25788 0.421311
132 1 0.559265 0.383939 0.44129
237 1 0.382438 0.302167 0.362557
210 1 0.624809 0.272824 0.319083
33 1 0.443904 0.439719 0.329477
274 1 0.399114 0.419921 0.479004
36 1 0.580002 0.410638 0.280343
337 2 0.48295 0.324579 0.273722
174 1 0.664113 0.254163 0.471396
262 1 0.434566 0.361358 0.629808
329 2 0.4058 0.300005 0.509231
360 2 0.59243 0.35798 0.583437
270 1 0.559304 0.341953 0.724378
118 1 0.590721 0.481881 0.606155
121 1 0.656743 0.260649 0.634095
21 1 0.527424 0.255689 0.539515
285 1 0.497812 0.354548 0.868093
23 1 0.616955 0.459365 0.964888
143 1 0.613975 0.312245 0.935753
309 2 0.607749 0.400743 0.83588
45 1 0.399793 0.437393 0.778391
1 1 0.346795 0.350299 0.892598
164 1 0.441385 0.423181 0.999546
205 1 0.434349 0.685296 0.172832