ITEM: TIMESTEP
0
ITEM: NUMBER OF ATOMS
360
ITEM: BOX BOUNDS pp pp pp
0.0000000000000000e+00 6.6943295008216896e+00
0.0000000000000000e+00 6.6943295008216896e+00
0.0000000000000000e+00 6.6943295008216896e+00
ITEM: ATOMS id type xs ys zs
293 2 0.0719703 0.231709 0.101795
155 1 0.0532076 0.146882 0.20617
30 1 0.150249 0.0333498 0.111341
97 1 0.201018 0.194339 0.0800684
271 1 0.00958745 0.066197 0.0772599
230 1 0.109374 0.135882 0.008577
21 1 0.282894 0.0881692 0.157021
237 1 0.307419 0.206623 0.23205
222 1 0.244831 0.00807331 0.00643619
2 1 0.178335 0.0424761 0.428605
71 1 0.252272 0.0437095 0.330063
325 2 0.00664342 0.0175737 0.364096
192 1 0.120143 0.109014 0.336968
232 1 0.311538 0.0143649 0.462594
137 1 0.117729 0.23906 0.262182
264 1 0.0372798 0.0460463 0.469394
298 2 0.0263029 0.0710333 0.656075
131 1 0.245591 0.0547497 0.669336
81 1 0.279383 0.191762 0.674337
114 1 0.204836 0.00639039 0.564462
206 1 0.12661 0.135067 0.680653
66 1 0.0234778 0.138746 0.577461
280 1 0.239979 0.196638 0.506078
208 1 0.0692714 0.0263592 0.94483
260 1 0.206657 0.119232 0.910783
270 1 0.225187 0.242564 0.942175
18 1 0.324619 0.148188 0.816113
258 1 0.120531 0.135416 0.825483
42 1 0.253972 0.0343086 0.800292
345 2 0.299051 0.0405268 0.910366
199 1 0.0777473 0.444181 0.212215
309 2 0.0533265 0.462725 0.106668
231 1 0.154063 0.34787 0.155383
188 1 0.121959 0.293775 0.0216992
180 1 0.261123 0.445671 0.0474855
32 1 0.273646 0.405798 0.180055
267 1 0.322006 0.261439 0.0590412
33 1 0.016789 0.296936 0.178686
118 1 0.241224 0.285337 0.400332
69 1 0.233108 0.413869 0.437736
82 1 0.100246 0.441187 0.347381
96 1 0.17312 0.354881 0.288175
350 2 0.120862 0.264228 0.40438
76 1 0.00617638 0.355519 0.491051
70 1 0.307829 0.443584 0.317867
1 1 0.134953 0.443485 0.685464
306 2 0.149706 0.427614 0.51513
274 1 0.194473 0.288524 0.732052
103 1 0.124879 0.310095 0.590795
117 1 0.231356 0.395055 0.588267
316 2 0.265966 0.448617 0.706975
176 1 0.301243 0.284911 0.83182
338 2 0.19006 0.308549 0.844712
294 2 0.0588561 0.415272 0.771017
58 1 0.0793448 0.29486 0.788661
104 1 0.153889 0.419872 0.819803
303 2 0.255497 0.384426 0.928047
286 1 0.331563 0.45511 0.82889
123 1 0.0451608 0.37295 0.965192
48 1 0.0732164 0.606437 0.17381
189 1 0.125451 0.541324 0.0373112
202 1 0.200504 0.506243 0.148899
305 2 0.270997 0.596868 0.112224
23 1 0.130954 0.728454 0.122545
196 1 0.22451 0.606651 0.216433
25 1 0.0403391 0.707451 0.0160701
285 1 0.0319434 0.737753 0.229464
308 2 0.198956 0.511492 0.290287
86 1 0.0265348 0.537968 0.286722
167 1 0.105617 0.656257 0.32364
307 2 0.124052 0.632117 0.430339
300 2 0.0706975 0.50822 0.453956
52 1 0.241403 0.62645 0.349777
321 2 0.327577 0.701244 0.397871
216 1 0.249468 0.566115 0.459942
61 1 0.28641 0.735356 0.259106
164 1 0.162844 0.54739 0.538348
288 1 0.134789 0.720822 0.677751
186 1 0.271678 0.618912 0.614936
248 1 0.236166 0.700563 0.506126
194 1 0.106897 0.685206 0.555704
149 1 0.0103465 0.528206 0.547935
354 2 0.0731478 0.579926 0.643878
246 1 0.308857 0.72275 0.73452
277 1 0.0748202 0.50012 0.907282
272 1 0.00421155 0.704203 0.851349
228 1 0.197737 0.621178 0.762793
91 1 0.238575 0.511947 0.920218
4 1 0.272545 0.676954 0.886315
342 2 0.111831 0.540545 0.795556
360 2 0.0850968 0.640503 0.926902
74 1 0.180771 0.64611 0.987619
326 2 0.325829 0.554646 0.840472
161 1 0.132221 0.709912 0.881307
17 1 0.13538 0.846763 0.079878
107 1 0.327157 0.873099 0.0834726
172 1 0.0530347 0.889482 0.19541
315 2 0.331785 0.759006 0.141938
225 1 0.145852 0.993979 0.235431
215 1 0.210825 0.868906 0.179519
59 1 0.323308 0.934845 0.232289
353 2 0.0804561 0.967235 0.0464178
126 1 0.210905 0.927761 0.352025
247 1 0.217994 0.801113 0.348696
182 1 0.0803123 0.8806 0.485691
357 2 0.0782246 0.800791 0.316286
100 1 0.0615366 0.920154 0.333376
147 1 0.3321 0.80122 0.42303
289 2 0.183777 0.785226 0.251711
151 1 0.114 0.766027 0.438283
3 1 0.261827 0.891021 0.470285
136 1 0.326329 0.880124 0.613
62 1 0.218661 0.818522 0.746483
40 1 0.0410838 0.95251 0.667727
105 1 0.179663 0.850529 0.601047
5 1 0.142857 0.890613 0.885239
284 1 0.289232 0.886841 0.872369
349 2 0.0474408 0.798837 0.763007
323 2 0.115545 0.990797 0.802777
287 1 0.23473 0.814831 0.982722
98 1 0.00232427 0.909858 0.990478
297 2 0.53184 0.126421 0.0477633
320 2 0.597316 0.0405426 0.0509985
113 1 0.661242 0.170647 0.151514
185 1 0.45876 0.18509 0.136385
99 1 0.491051 0.0361326 0.160453
224 1 0.362686 0.0872855 0.0310378
187 1 0.615945 0.0258152 0.17123
253 1 0.526037 0.146377 0.241817
181 1 0.519854 0.146113 0.382054
108 1 0.424295 0.18808 0.489724
10 1 0.369508 0.0892567 0.356212
45 1 0.439121 0.0136199 0.281461
128 1 0.457895 0.00608955 0.426221
36 1 0.349503 0.228772 0.355058
259 1 0.647803 0.101691 0.393174
13 1 0.558726 0.00228823 0.311103
200 1 0.566422 0.245607 0.483886
95 1 0.55137 0.220347 0.638603
51 1 0.415876 0.237394 0.655202
47 1 0.410512 0.040275 0.694325
346 2 0.465112 0.0805605 0.516695
11 1 0.59768 0.101874 0.550422
275 1 0.356327 0.125752 0.577044
282 1 0.49993 0.00463007 0.60405
94 1 0.421081 0.0123047 0.898801
34 1 0.443069 0.194912 0.98512
57 1 0.575684 0.102603 0.947521
142 1 0.609975 0.236528 0.792727
332 2 0.408564 0.144911 0.893134
127 1 0.478926 0.0877224 0.819253
273 1 0.605654 0.0991349 0.752387
244 1 0.384949 0.408161 0.0852725
335 2 0.581992 0.365796 0.167139
197 1 0.603859 0.261615 0.0802401
344 2 0.377975 0.276172 0.149322
263 1 0.58686 0.478297 0.0595914
38 1 0.507285 0.451759 0.167109
56 1 0.632278 0.284305 0.222278
157 1 0.539604 0.377603 0.42093
249 1 0.49682 0.304649 0.305095
328 2 0.446703 0.299271 0.48249
339 2 0.373026 0.322605 0.3034
53 1 0.626308 0.408701 0.310923
144 1 0.427912 0.419123 0.389641
317 2 0.397801 0.423375 0.265275
46 1 0.518547 0.406529 0.551793
8 1 0.382827 0.401479 0.647462
243 1 0.355741 0.336459 0.554451
68 1 0.560395 0.449776 0.659673
130 1 0.501025 0.301163 0.744141
15 1 0.63392 0.292382 0.922508
337 2 0.532271 0.280369 0.848661
148 1 0.414911 0.269493 0.884591
359 2 0.536928 0.488119 0.866068
299 2 0.449613 0.417005 0.883648
276 1 0.65013 0.420812 0.889395
133 1 0.382773 0.350678 0.753719
233 1 0.501354 0.361311 0.982194
78 1 0.462332 0.512883 0.0617146
152 1 0.575112 0.633232 0.0707351
9 1 0.364302 0.705937 0.0490143
158 1 0.532184 0.725859 0.19138
92 1 0.65256 0.606792 0.222695
79 1 0.506966 0.576955 0.180127
283 1 0.350951 0.525929 0.190772
203 1 0.665669 0.740204 0.0693375
116 1 0.362041 0.554252 0.385599
193 1 0.394661 0.626469 0.278612
111 1 0.529818 0.68227 0.309926
50 1 0.655292 0.655733 0.422305
257 1 0.530551 0.523019 0.313578
77 1 0.425684 0.713495 0.41633
333 2 0.404727 0.611065 0.466579
75 1 0.610558 0.557232 0.472335
221 1 0.395281 0.661276 0.583958
134 1 0.432632 0.504246 0.7024
355 2 0.53569 0.65423 0.517838
331 2 0.342384 0.530347 0.616199
173 1 0.579225 0.61089 0.679904
85 1 0.348516 0.603005 0.719976
341 2 0.49309 0.739619 0.601161
156 1 0.423007 0.521305 0.516202
223 1 0.51914 0.60156 0.826497
121 1 0.496866 0.586109 0.950445
143 1 0.622319 0.656792 0.94207
220 1 0.366064 0.589881 0.992265
27 1 0.378367 0.655215 0.832293
311 2 0.491821 0.726205 0.792097
201 1 0.661504 0.557919 0.770302
255 1 0.538619 0.906456 0.140603
132 1 0.441444 0.838084 0.237516
141 1 0.636587 0.901026 0.223288
72 1 0.46268 0.980846 0.0358278
135 1 0.65982 0.759869 0.236261
252 1 0.431553 0.870515 0.435419
348 2 0.366147 0.796091 0.310635
295 2 0.416592 0.907967 0.328152
14 1 0.531047 0.789007 0.448041
87 1 0.582692 0.980236 0.459264
212 1 0.609456 0.888707 0.371458
162 1 0.505959 0.927299 0.719195
269 1 0.581725 0.79271 0.678149
49 1 0.615396 0.769567 0.556367
93 1 0.48115 0.860954 0.567716
7 1 0.652462 0.894762 0.556205
327 2 0.408068 0.777682 0.51608
179 1 0.393818 0.870438 0.966439
60 1 0.578028 0.985706 0.842021
301 2 0.402262 0.917089 0.805395
65 1 0.479086 0.860672 0.853758
322 2 0.340977 0.817645 0.809962
122 1 0.58312 0.927357 0.977556
138 1 0.619395 0.780282 0.927934
88 1 0.599427 0.852792 0.796916
6 1 0.47376 0.758091 0.94623
240 1 0.859168 0.0451143 0.144948
129 1 0.745541 0.0925897 0.218253
250 1 0.909371 0.155175 0.0322345
256 1 0.860144 0.173671 0.141533
106 1 0.796 0.12668 0.338118
35 1 0.908384 0.12584 0.416481
340 2 0.934609 0.217157 0.268653
63 1 0.940573 0.111884 0.282216
16 1 0.832079 0.0231348 0.408242
330 2 0.81284 0.104001 0.468612
178 1 0.99745 0.237777 0.377782
210 1 0.884177 0.0994993 0.578392
166 1 0.669294 0.169877 0.642868
241 1 0.790381 0.188974 0.66653
171 1 0.89697 0.0608077 0.734934
319 2 0.74833 0.056418 0.690735
165 1 0.752608 0.0956221 0.552664
169 1 0.943018 0.24003 0.528621
314 2 0.86866 0.208909 0.608537
124 1 0.702948 0.237505 0.509908
55 1 0.981402 0.1595 0.708177
102 1 0.901255 0.0465457 0.859534
292 2 0.999713 0.127938 0.979721
175 1 0.870444 0.176723 0.787658
31 1 0.713858 0.114945 0.812639
184 1 0.86637 0.236866 0.919314
28 1 0.788598 0.116649 0.93768
83 1 0.735059 0.240758 0.844881
54 1 0.726031 0.0044601 0.984223
163 1 0.70664 0.198296 0.989053
160 1 0.991441 0.19274 0.853279
19 1 0.880829 0.0407827 0.995883
80 1 0.937682 0.299947 0.00959877
218 1 0.792083 0.30474 0.0169749
43 1 0.850964 0.291293 0.174734
262 1 0.770865 0.493988 0.179173
115 1 0.912726 0.418658 0.161672
29 1 0.694146 0.386334 0.142806
296 2 0.774264 0.25191 0.103623
302 2 0.708035 0.348638 0.23854
139 1 0.974876 0.346693 0.304162
226 1 0.908828 0.48182 0.268383
313 2 0.947975 0.394535 0.414938
64 1 0.877789 0.269526 0.412808
159 1 0.84259 0.449205 0.402698
195 1 0.757566 0.453436 0.296759
119 1 0.727315 0.326509 0.387197
343 2 0.831112 0.376904 0.27217
153 1 0.691198 0.450944 0.465904
177 1 0.788086 0.263893 0.28215
44 1 0.990976 0.422941 0.657422
347 2 0.781666 0.463771 0.662175
312 2 0.694766 0.468132 0.57841
358 2 0.825106 0.353373 0.56096
214 1 0.89887 0.422965 0.527753
20 1 0.80544 0.345028 0.657148
112 1 0.96467 0.287568 0.645916
110 1 0.682428 0.395528 0.718892
109 1 0.942357 0.364271 0.883195
281 1 0.791877 0.354048 0.898958
24 1 0.893287 0.496218 0.842113
213 1 0.761661 0.470402 0.802558
205 1 0.818609 0.463174 0.959568
242 1 0.870828 0.364364 0.767201
174 1 0.739261 0.600669 0.123611
211 1 0.932569 0.587562 0.195089
140 1 0.887288 0.670481 0.0691411
198 1 0.8678 0.723767 0.193997
39 1 0.922193 0.526872 0.0352177
154 1 0.950578 0.507791 0.417473
26 1 0.988466 0.714267 0.469277
229 1 0.671851 0.540652 0.356375
236 1 0.787253 0.645977 0.279768
278 1 0.955222 0.690248 0.329635
183 1 0.848823 0.598474 0.425601
329 2 0.813513 0.696166 0.573314
227 1 0.697115 0.720107 0.65698
254 1 0.8731 0.597117 0.56139
261 1 0.744485 0.574886 0.671088
207 1 0.865973 0.55002 0.724954
234 1 0.963942 0.623208 0.625973
266 1 0.712559 0.631999 0.531071
101 1 0.977217 0.60402 0.958083
239 1 0.673904 0.53726 0.947474
265 1 0.861991 0.640555 0.888371
73 1 0.720409 0.652702 0.856182
291 2 0.868924 0.70402 0.794202
90 1 0.990305 0.51187 0.763047
219 1 0.770367 0.638689 0.994314
84 1 0.767128 0.900676 0.146847
238 1 0.843755 0.810774 0.0328667
217 1 0.966821 0.947077 0.116631
67 1 0.708192 0.874718 0.0337407
351 2 0.782614 0.791925 0.109261
324 2 0.826876 0.931201 0.0530429
310 2 0.987412 0.808617 0.0393096
251 1 0.914997 0.857954 0.197894
290 2 0.79155 0.899276 0.287406
279 1 0.68974 0.991755 0.340052
204 1 0.843145 0.751909 0.438724
168 1 0.896467 0.887721 0.397798
146 1 0.754303 0.929772 0.443353
190 1 0.946196 0.967152 0.264182
125 1 0.981353 0.822065 0.329044
170 1 0.795543 0.786369 0.27615
318 2 0.697808 0.770555 0.338343
150 1 0.799262 0.912024 0.565114
41 1 0.816715 0.906064 0.73312
336 2 0.977462 0.863223 0.651394
304 2 0.728351 0.829086 0.647106
209 1 0.691882 0.92411 0.729335
145 1 0.907551 0.945869 0.614631
245 1 0.728896 0.797854 0.50238
268 1 0.973887 0.752294 0.647509
37 1 0.909917 0.845039 0.522026
89 1 0.873615 0.891122 0.882891
22 1 0.749777 0.787205 0.86205
12 1 0.714814 0.924529 0.882178
235 1 0.901718 0.804682 0.763273
120 1 0.989203 0.919151 0.808189
352 2 0.873504 0.970246 0.796246
356 2 0.81063 0.994673 0.888011
191 1 0.979594 0.814808 0.911199
334 2 0.842522 0.751785 0.916358
ITEM: TIMESTEP
10000
ITEM: NUMBER OF ATOMS
360
ITEM: BOX BOUNDS pp pp pp
0.0000000000000000e+00 6.6943295008216896e+00
0.0000000000000000e+00 6.6943295008216896e+00
0.0000000000000000e+00 6.6943295008216896e+00
ITEM: ATOMS id type xs ys zs
80 1 0.171135 0.227713 0.0555871
33 1 0.0729457 0.21199 0.172569
114 1 0.188563 0.10317 0.135379
267 1 0.324037 0.217026 0.104752
190 1 0.0454199 0.0499468 0.224225
32 1 0.281418 0.151578 0.246111
2 1 0.113627 0.0377893 0.365675
206 1 0.0175653 0.149695 0.470588
192 1 0.269024 0.024708 0.318645
96 1 0.240973 0.153758 0.420056
178 1 0.131031 0.194266 0.310711
350 2 0.130698 0.209891 0.436849
248 1 0.26522 0.0229445 0.494019
5 1 0.0280158 0.125856 0.651971
17 1 0.301566 0.068372 0.668126
349 2 0.210379 0.124511 0.715727
127 1 0.189919 0.152872 0.580344
207 1 0.135112 0.019031 0.664382
130 1 0.31152 0.224229 0.613201
133 1 0.145036 0.246522 0.689012
288 1 0.109774 0.042265 0.509641
352 2 0.13953 0.228956 0.818073
175 1 0.0287314 0.19277 0.888206
224 1 0.275888 0.0716192 0.814932
98 1 0.288309 0.219369 0.773651
260 1 0.13527 0.10097 0.824984
199 1 0.202406 0.190827 0.921477
208 1 0.0781025 0.0306097 0.935932
295 2 0.191715 0.035048 0.906829
353 2 0.104878 0.146484 0.985276
270 1 0.295345 0.0764626 0.988955
39 1 0.219621 0.425892 0.126488
109 1 0.0317564 0.271514 0.00377007
309 2 0.295867 0.399568 0.235151
139 1 0.0946098 0.344437 0.128559
69 1 0.071989 0.490284 0.15304
137 1 0.220436 0.310147 0.213353
155 1 0.262161 0.33346 0.00335218
341 2 0.168759 0.459471 0.41703
214 1 0.0381208 0.46264 0.319632
308 2 0.246362 0.269184 0.35231
64 1 0.145992 0.341529 0.379344
196 1 0.195261 0.448852 0.278352
66 1 0.027039 0.315745 0.283423
257 1 0.283187 0.405239 0.391654
310 2 0.027356 0.298323 0.666019
117 1 0.0812464 0.28262 0.555756
116 1 0.242696 0.472438 0.541463
81 1 0.287549 0.3647 0.652824
342 2 0.16423 0.409006 0.61138
303 2 0.131011 0.491065 0.708539
261 1 0.0321744 0.438069 0.650192
36 1 0.215685 0.295282 0.512613
237 1 0.0786937 0.433652 0.508282
104 1 0.293431 0.355711 0.854516
274 1 0.137827 0.317595 0.907224
292 2 0.199484 0.429415 0.905101
286 1 0.0922374 0.492322 0.853607
51 1 0.322965 0.494095 0.841164
176 1 0.0431838 0.341242 0.801168
216 1 0.193254 0.402091 0.769753
123 1 0.0859566 0.423237 0.994806
91 1 0.321149 0.481948 0.998085
23 1 0.1899 0.722 0.0891766
283 1 0.328006 0.732184 0.112644
202 1 0.197524 0.566077 0.10245
343 2 0.0550516 0.632833 0.156676
107 1 0.276255 0.664902 0.236772
100 1 0.0324779 0.742087 0.210628
344 2 0.267442 0.622207 0.0179402
183 1 0.043605 0.740485 0.384535
61 1 0.17186 0.625537 0.430265
70 1 0.14798 0.599439 0.292617
24 1 0.0256724 0.58901 0.39208
315 2 0.246673 0.551437 0.366957
147 1 0.276068 0.726923 0.380503
14 1 0.32393 0.649667 0.660821
290 2 0.0967673 0.67938 0.527337
101 1 0.11297 0.569805 0.579261
301 2 0.235741 0.631254 0.552635
42 1 0.179093 0.631413 0.699974
211 1 0.0500288 0.573715 0.714466
90 1 0.0794151 0.721706 0.647667
144 1 0.270951 0.502628 0.69016
74 1 0.134022 0.653306 0.835691
25 1 0.230719 0.728438 0.94875
82 1 0.0895686 0.61729 0.988901
228 1 0.205193 0.54447 0.939737
287 1 0.28521 0.62938 0.812701
331 2 0.193605 0.552881 0.806899
360 2 0.219822 0.739306 0.800157
265 1 0.00607509 0.742002 0.780887
300 2 0.0809749 0.968867 0.125741
59 1 0.287593 0.998447 0.137497
215 1 0.271714 0.857069 0.0581597
167 1 0.1359 0.852875 0.146544
63 1 0.0057923 0.915638 0.0163221
52 1 0.168369 0.948348 0.246228
191 1 0.165596 0.969675 0.0327912
131 1 0.310608 0.860266 0.192092
354 2 0.112086 0.824399 0.0329384
164 1 0.0450368 0.885569 0.446974
182 1 0.198305 0.884174 0.389361
159 1 0.16892 0.770816 0.492713
48 1 0.163083 0.766061 0.290328
154 1 0.0527795 0.872486 0.296454
221 1 0.31814 0.880156 0.498206
21 1 0.332537 0.889832 0.33915
94 1 0.305921 0.899995 0.649647
246 1 0.216331 0.772341 0.630656
161 1 0.0774684 0.886112 0.667304
247 1 0.167196 0.908487 0.555135
306 2 0.0177562 0.99669 0.592817
140 1 0.13477 0.810222 0.777234
162 1 0.296932 0.823331 0.862454
9 1 0.20843 0.948295 0.782092
272 1 0.187554 0.88467 0.919506
235 1 0.0348814 0.921678 0.830347
285 1 0.0551108 0.755814 0.929127
222 1 0.319189 0.944499 0.931494
225 1 0.402298 0.101673 0.156843
99 1 0.477752 0.205531 0.0770484
72 1 0.543997 0.0478264 0.16844
356 2 0.581028 0.108395 0.0600526
187 1 0.62498 0.180335 0.144403
166 1 0.483945 0.0281416 0.0417087
297 2 0.372407 0.228255 0.212873
43 1 0.633201 0.10636 0.318895
34 1 0.537563 0.0278844 0.380632
118 1 0.485334 0.161004 0.42741
327 2 0.365137 0.145714 0.362052
142 1 0.386783 0.0347821 0.412837
253 1 0.496677 0.162701 0.263827
296 2 0.626444 0.23043 0.440093
128 1 0.426261 0.0014305 0.264557
200 1 0.584044 0.16766 0.561773
185 1 0.510602 0.0423262 0.540219
108 1 0.559932 0.101619 0.69561
322 2 0.44415 0.12307 0.667136
333 2 0.458812 0.225219 0.531554
319 2 0.635361 0.22564 0.675806
62 1 0.390083 0.114965 0.530514
357 2 0.387783 0.00107177 0.5615
60 1 0.601547 0.100649 0.917205
284 1 0.454771 0.0405271 0.890156
57 1 0.594783 0.213355 0.789004
276 1 0.487145 0.186712 0.928859
275 1 0.450273 0.167226 0.773982
148 1 0.350042 0.227135 0.959914
332 2 0.37576 0.128267 0.876041
244 1 0.50189 0.299165 0.20776
79 1 0.362395 0.380285 0.11842
302 2 0.610669 0.277034 0.0660549
29 1 0.55013 0.430726 0.119168
163 1 0.662334 0.3229 0.164863
233 1 0.465206 0.332763 0.0157783
339 2 0.394276 0.358466 0.418121
38 1 0.371673 0.252719 0.327248
47 1 0.489709 0.341241 0.494378
231 1 0.426285 0.399049 0.291427
335 2 0.550803 0.408544 0.386471
157 1 0.549462 0.282393 0.35711
193 1 0.599149 0.400754 0.282263
78 1 0.355486 0.26646 0.48377
46 1 0.550016 0.389511 0.645597
317 2 0.479391 0.456458 0.578906
75 1 0.378101 0.428479 0.52109
249 1 0.653755 0.311878 0.553452
156 1 0.585677 0.450821 0.5055
328 2 0.391112 0.323759 0.582157
15 1 0.483864 0.257158 0.656951
180 1 0.419624 0.410964 0.737833
337 2 0.382515 0.280842 0.730738
299 2 0.510695 0.489935 0.735345
239 1 0.428996 0.305071 0.833423
242 1 0.616177 0.446635 0.962856
316 2 0.399917 0.390802 0.930524
223 1 0.572618 0.369807 0.790046
1 1 0.485807 0.457697 0.866548
160 1 0.592487 0.305144 0.922111
3 1 0.35045 0.533926 0.155543
158 1 0.573621 0.583251 0.126505
252 1 0.437719 0.651873 0.201263
4 1 0.431973 0.640516 0.0525418
85 1 0.457715 0.512375 0.00715796
263 1 0.498668 0.510707 0.229133
326 2 0.549852 0.654119 0.0302623
77 1 0.336629 0.525794 0.291496
266 1 0.59056 0.685143 0.410716
174 1 0.434788 0.653865 0.363501
348 2 0.541578 0.575606 0.376363
132 1 0.57834 0.672703 0.264589
111 1 0.333992 0.578384 0.479255
20 1 0.660376 0.514688 0.382361
229 1 0.445721 0.508269 0.402362
121 1 0.556776 0.537885 0.627789
273 1 0.337715 0.725007 0.52827
146 1 0.482296 0.666543 0.671698
173 1 0.635346 0.598504 0.520903
50 1 0.486583 0.629812 0.512371
93 1 0.40849 0.538618 0.619673
307 2 0.633063 0.62358 0.663992
282 1 0.58176 0.724374 0.588768
189 1 0.357451 0.615972 0.927745
186 1 0.432917 0.575181 0.789488
311 2 0.373186 0.708137 0.839908
359 2 0.610191 0.697981 0.906291
55 1 0.592863 0.638303 0.776756
8 1 0.562574 0.588877 0.917102
134 1 0.484233 0.710763 0.886912
110 1 0.628973 0.509618 0.797912
138 1 0.515382 0.76974 0.140656
45 1 0.429354 0.907944 0.105454
255 1 0.588753 0.916931 0.107621
320 2 0.48678 0.888506 0.22472
168 1 0.611585 0.821061 0.244219
27 1 0.611508 0.76333 0.0106313
136 1 0.483703 0.774327 0.467784
126 1 0.443718 0.769802 0.269755
346 2 0.385085 0.777556 0.394788
251 1 0.638311 0.819299 0.399399
87 1 0.494351 0.873857 0.354287
135 1 0.597718 0.963574 0.272471
40 1 0.455892 0.921464 0.490084
280 1 0.439759 0.807121 0.606683
179 1 0.359705 0.777804 0.738018
150 1 0.552411 0.833888 0.704494
71 1 0.441508 0.976104 0.715138
171 1 0.631826 0.944441 0.698606
232 1 0.59375 0.857974 0.526312
318 2 0.550814 0.944569 0.604286
7 1 0.582084 0.809623 0.847712
65 1 0.440081 0.868386 0.844101
209 1 0.512703 0.861319 0.981365
12 1 0.636026 0.933129 0.958448
97 1 0.38965 0.777959 0.980174
165 1 0.56847 0.962313 0.823592
345 2 0.342388 0.930922 0.79065
238 1 0.852994 0.103312 0.0535989
84 1 0.700568 0.189449 0.0140422
141 1 0.715291 0.0539297 0.214974
122 1 0.688644 0.0343226 0.0573943
54 1 0.939832 0.242554 0.113647
53 1 0.768039 0.209607 0.165568
113 1 0.883593 0.0811113 0.204471
188 1 0.99798 0.0896333 0.0794339
212 1 0.71274 0.132265 0.444836
256 1 0.791672 0.140907 0.320629
258 1 0.874025 0.150194 0.471807
264 1 0.82313 0.0264822 0.405007
105 1 0.953683 0.016757 0.479573
106 1 0.981156 0.127293 0.327793
340 2 0.92969 0.223952 0.392123
115 1 0.899099 0.240099 0.254096
281 1 0.68407 0.243051 0.302445
298 2 0.845269 0.232577 0.687746
11 1 0.707534 0.133537 0.645817
323 2 0.787798 0.0551089 0.532207
35 1 0.881751 0.110507 0.638611
181 1 0.682143 0.00687959 0.555725
10 1 0.783318 0.233555 0.571774
169 1 0.92651 0.238932 0.587566
129 1 0.78484 0.000526204 0.692995
243 1 0.963435 0.224847 0.741262
271 1 0.751318 0.0525687 0.924862
230 1 0.881596 0.155027 0.914776
18 1 0.985497 0.0792555 0.800316
83 1 0.739082 0.228037 0.880904
210 1 0.823513 0.140231 0.766707
95 1 0.692169 0.0790242 0.787504
30 1 0.926624 0.0326785 0.951226
218 1 0.820286 0.337526 0.131453
226 1 0.707798 0.473345 0.0851966
184 1 0.950927 0.380154 0.0705249
177 1 0.947158 0.424584 0.213246
250 1 0.715582 0.346606 0.0144781
125 1 0.830916 0.481575 0.149333
119 1 0.796282 0.456152 0.401065
76 1 0.898721 0.363765 0.3488
220 1 0.746871 0.42377 0.265615
312 2 0.868194 0.486691 0.296183
330 2 0.872169 0.278348 0.493558
195 1 0.678189 0.354468 0.41161
197 1 0.776427 0.255474 0.422622
294 2 0.904929 0.399394 0.459745
358 2 0.798189 0.310637 0.280339
103 1 0.991259 0.30504 0.450696
124 1 0.829245 0.387104 0.553298
102 1 0.906121 0.355551 0.687674
68 1 0.738881 0.293001 0.732217
355 2 0.70715 0.418852 0.536747
227 1 0.688178 0.436581 0.65171
313 2 0.972158 0.360127 0.570859
205 1 0.823074 0.425587 0.974806
201 1 0.917592 0.455299 0.83318
241 1 0.729531 0.393902 0.845684
112 1 0.880097 0.30162 0.844128
314 2 0.964297 0.384397 0.918667
28 1 0.851805 0.284096 0.995333
291 2 0.80859 0.406619 0.752711
254 1 0.944957 0.596342 0.240785
236 1 0.818434 0.664871 0.195325
172 1 0.961207 0.730607 0.0567743
92 1 0.677795 0.547285 0.215603
278 1 0.960576 0.590867 0.101416
213 1 0.674417 0.69157 0.136896
262 1 0.670039 0.602835 0.018042
86 1 0.81327 0.745104 0.0630224
219 1 0.829312 0.567658 0.0228478
26 1 0.795749 0.585514 0.315047
37 1 0.74748 0.678793 0.444355
153 1 0.871145 0.595005 0.441699
170 1 0.716642 0.721141 0.308224
234 1 0.901132 0.72869 0.362365
49 1 0.764662 0.539713 0.528165
204 1 0.856917 0.632054 0.590328
22 1 0.748674 0.579393 0.698972
149 1 0.940982 0.50462 0.532543
41 1 0.743601 0.729758 0.613521
73 1 0.908742 0.517836 0.692548
329 2 0.993085 0.600182 0.593121
145 1 0.968481 0.712416 0.514725
347 2 0.764948 0.678231 0.973537
6 1 0.73541 0.671146 0.846592
58 1 0.996824 0.598963 0.84189
88 1 0.865996 0.695189 0.911659
31 1 0.87045 0.638035 0.761482
44 1 0.805184 0.537007 0.847722
324 2 0.725587 0.515068 0.944383
305 2 0.974633 0.659159 0.956317
277 1 0.98085 0.535705 0.971223
338 2 0.909877 0.988995 0.0856157
198 1 0.793001 0.924837 0.15844
351 2 0.704544 0.875684 0.0608042
321 2 0.741304 0.791738 0.177764
334 2 0.863972 0.85572 0.0747906
143 1 0.804096 0.945707 0.00947478
203 1 0.945901 0.931436 0.187335
289 2 0.997557 0.835216 0.112996
19 1 0.751005 0.892853 0.306952
279 1 0.90778 0.852549 0.439956
325 2 0.794554 0.80118 0.400427
240 1 0.943858 0.966255 0.339961
13 1 0.682172 0.980367 0.411187
151 1 0.857759 0.824786 0.250717
194 1 0.980103 0.844682 0.566288
304 2 0.671579 0.829594 0.626833
56 1 0.792985 0.862892 0.662459
245 1 0.912829 0.751274 0.67009
259 1 0.850744 0.944878 0.547204
293 2 0.850017 0.784211 0.56046
89 1 0.945898 0.962433 0.694575
16 1 0.737224 0.830453 0.517347
336 2 0.975739 0.8466 0.7206
269 1 0.679145 0.761469 0.736344
268 1 0.824414 0.816624 0.792036
217 1 0.908365 0.85007 0.926753
152 1 0.751967 0.798121 0.930311
67 1 0.721208 0.932238 0.819206
120 1 0.868883 0.956234 0.835276
