ITEM: TIMESTEP
0
ITEM: NUMBER OF ATOMS
360
ITEM: BOX BOUNDS pp pp pp
0.0000000000000000e+00 6.6943295008216896e+00
0.0000000000000000e+00 6.6943295008216896e+00
0.0000000000000000e+00 6.6943295008216896e+00
ITEM: ATOMS id type xs ys zs
184 1 0.219405 0.145239 0.224731
168 1 0.248678 0.0331923 0.111796
21 1 0.121996 0.0260417 0.00239354
134 1 0.149385 0.15598 0.0820406
318 2 0.0834554 0.0595156 0.132235
117 1 0.0568359 0.159549 0.206688
354 2 0.0407256 0.226835 0.0784536
17 1 0.130666 0.0282967 0.238192
241 1 0.0809381 0.0190868 0.431248
344 2 0.0321835 0.0358072 0.310543
264 1 0.288962 0.172912 0.375184
111 1 0.114283 0.152787 0.350882
100 1 0.235368 0.0237918 0.353815
73 1 0.201055 0.109262 0.487761
320 2 0.295068 0.0307659 0.471994
268 1 0.0218728 0.249501 0.477638
200 1 0.0490572 0.115344 0.564827
107 1 0.187631 0.119292 0.733685
136 1 0.0469015 0.0671384 0.718494
165 1 0.318631 0.24872 0.547773
311 2 0.262332 0.135203 0.597995
203 1 0.159948 0.210364 0.594104
265 1 0.220508 0.0144899 0.621946
171 1 0.310196 0.170681 0.838799
286 1 0.0733609 0.216459 0.967438
132 1 0.251341 0.00297912 0.92316
273 1 0.0617218 0.0802009 0.869326
299 2 0.189309 0.0972135 0.861446
141 1 0.242657 0.159908 0.965433
177 1 0.0893342 0.223235 0.815124
84 1 0.152212 0.31915 0.0373912
77 1 0.0737132 0.308539 0.170817
54 1 0.27237 0.409927 0.0311903
206 1 0.189548 0.452168 0.155179
274 1 0.26091 0.307033 0.157047
65 1 0.108166 0.4632 0.00861101
316 2 0.311787 0.429409 0.161854
114 1 0.0292554 0.491354 0.139263
327 2 0.183449 0.398161 0.387208
53 1 0.0729658 0.396194 0.454105
24 1 0.172452 0.291584 0.305716
240 1 0.261135 0.440621 0.48128
280 1 0.267942 0.464182 0.308311
270 1 0.0888508 0.431668 0.289299
178 1 0.179407 0.279569 0.468866
348 2 0.288346 0.329517 0.278795
229 1 0.00773537 0.268042 0.315499
90 1 0.318647 0.327713 0.415044
49 1 0.217749 0.382939 0.604251
249 1 0.282907 0.289629 0.720321
147 1 0.0725082 0.332738 0.608544
312 2 0.272363 0.421502 0.707279
166 1 0.0328021 0.482905 0.704852
353 2 0.159884 0.255555 0.707028
62 1 0.152613 0.384361 0.735769
34 1 0.195675 0.446986 0.893588
144 1 0.0657774 0.356462 0.88407
194 1 0.326785 0.38646 0.831175
182 1 0.219427 0.302483 0.886707
335 2 0.277032 0.285694 0.999759
161 1 0.0269906 0.498037 0.862888
26 1 0.0353642 0.692096 0.184337
310 2 0.228121 0.52116 0.00668807
219 1 0.1412 0.607344 0.0920532
88 1 0.266543 0.667458 0.0887232
290 2 0.251762 0.550693 0.180701
338 2 0.183419 0.67517 0.202945
7 1 0.0811345 0.719518 0.0179723
97 1 0.134532 0.570274 0.241667
300 2 0.0490196 0.595148 0.336229
131 1 0.266247 0.627144 0.324902
215 1 0.227626 0.738982 0.441522
85 1 0.0918136 0.651942 0.458584
8 1 0.125641 0.70886 0.323546
236 1 0.165816 0.522072 0.392668
209 1 0.0744871 0.519638 0.546277
67 1 0.0559096 0.643569 0.622932
109 1 0.286175 0.646271 0.66325
205 1 0.246666 0.58872 0.510749
1 1 0.172109 0.727257 0.592642
105 1 0.176795 0.531022 0.673478
201 1 0.332826 0.511194 0.626165
294 2 0.126971 0.509119 0.787193
25 1 0.0246887 0.671599 0.878212
113 1 0.119268 0.63033 0.765371
130 1 0.16601 0.601302 0.930075
94 1 0.275381 0.530046 0.779391
291 2 0.221837 0.685397 0.840475
76 1 0.31504 0.555298 0.929013
12 1 0.00418368 0.580962 0.996574
234 1 0.170089 0.794416 0.135472
116 1 0.102878 0.926116 0.138003
174 1 0.241735 0.929948 0.237809
271 1 0.213115 0.890675 0.0336369
341 2 0.00567431 0.982961 0.0403394
56 1 0.0182599 0.835679 0.262029
199 1 0.135708 0.864593 0.349356
128 1 0.289502 0.858881 0.37629
149 1 0.0848047 0.816205 0.480181
10 1 0.254452 0.769274 0.259309
233 1 0.208783 0.932303 0.484931
261 1 0.286214 0.83218 0.594881
172 1 0.0620321 0.949011 0.567259
3 1 0.162821 0.873214 0.660454
23 1 0.240037 0.763024 0.741344
37 1 0.0206998 0.790657 0.621765
343 2 0.285827 0.890186 0.727242
305 2 0.112556 0.76082 0.706849
207 1 0.270296 0.873698 0.86426
30 1 0.131257 0.779631 0.864148
326 2 0.153456 0.905221 0.919486
175 1 0.0468466 0.931754 0.859236
83 1 0.182121 0.968815 0.790389
4 1 0.067367 0.867505 0.996093
11 1 0.232713 0.752335 0.966971
235 1 0.358096 0.0398538 0.220252
208 1 0.550435 0.0757335 0.0184604
38 1 0.498555 0.216686 0.0157023
55 1 0.500035 0.13496 0.159769
252 1 0.363326 0.191018 0.229577
186 1 0.634096 0.197802 0.0952594
351 2 0.4305 0.0542767 0.0949987
36 1 0.648529 0.0949609 0.236147
355 2 0.437678 0.244519 0.154909
317 2 0.586537 0.0119437 0.152998
179 1 0.589432 0.246815 0.235673
173 1 0.35704 0.166314 0.0737503
58 1 0.571291 0.132125 0.377493
246 1 0.385098 0.0596371 0.384121
333 2 0.453248 0.136406 0.296954
103 1 0.507434 0.040472 0.473615
78 1 0.431589 0.180283 0.470361
15 1 0.503701 0.0261282 0.271002
314 2 0.53147 0.159038 0.529112
210 1 0.385668 0.0733189 0.564631
231 1 0.466092 0.228106 0.637002
82 1 0.472909 0.0679698 0.696792
45 1 0.624132 0.0616731 0.564006
160 1 0.597785 0.173544 0.674783
16 1 0.342891 0.159196 0.686736
198 1 0.610901 0.0132372 0.721254
211 1 0.635688 0.208253 0.502579
254 1 0.409169 0.087234 0.938029
191 1 0.628067 0.122985 0.8207
40 1 0.505438 0.215425 0.802238
217 1 0.514362 0.0279512 0.840366
350 2 0.55352 0.158534 0.916345
349 2 0.423896 0.119185 0.810691
228 1 0.33518 0.0169317 0.791322
42 1 0.542444 0.321245 0.113029
51 1 0.657367 0.458308 0.121181
66 1 0.459004 0.451691 0.103937
13 1 0.403361 0.352606 0.222468
164 1 0.379434 0.317711 0.0614387
346 2 0.660158 0.340985 0.0885282
126 1 0.441326 0.40161 0.357131
153 1 0.609126 0.320815 0.390864
329 2 0.626507 0.472571 0.357132
197 1 0.465102 0.256307 0.34541
44 1 0.541496 0.47827 0.447577
222 1 0.582495 0.406102 0.261405
35 1 0.666171 0.456503 0.692233
213 1 0.413374 0.392668 0.700441
267 1 0.413701 0.41344 0.525865
322 2 0.546728 0.424233 0.612577
196 1 0.563152 0.333168 0.693317
122 1 0.530198 0.30584 0.512656
224 1 0.662549 0.412094 0.521934
245 1 0.487742 0.364609 0.834179
127 1 0.562567 0.417096 0.989511
296 2 0.386364 0.27878 0.786101
29 1 0.622215 0.283772 0.950974
157 1 0.391867 0.270268 0.922502
259 1 0.413342 0.434554 0.95237
321 2 0.50367 0.315519 0.945132
152 1 0.660617 0.39 0.846937
360 2 0.553919 0.454892 0.755928
225 1 0.545847 0.566491 0.0670593
324 2 0.444036 0.585577 0.138591
328 2 0.573517 0.690592 0.080278
262 1 0.554397 0.637574 0.204214
204 1 0.385357 0.670169 0.20879
81 1 0.427711 0.681368 0.0683904
325 2 0.548613 0.506152 0.171037
140 1 0.386553 0.512395 0.230599
266 1 0.337821 0.533518 0.0829911
309 2 0.465876 0.643765 0.322285
47 1 0.50871 0.531064 0.316804
123 1 0.361336 0.548191 0.391683
133 1 0.535611 0.652941 0.437311
43 1 0.381402 0.727033 0.388592
156 1 0.657792 0.666091 0.319594
190 1 0.665668 0.539613 0.251058
74 1 0.595477 0.559655 0.558281
20 1 0.51199 0.696717 0.589091
27 1 0.485033 0.521227 0.664136
303 2 0.411831 0.631979 0.643734
162 1 0.634628 0.619414 0.693864
118 1 0.434609 0.578986 0.518174
33 1 0.371877 0.725262 0.535543
39 1 0.489979 0.65 0.741714
315 2 0.360542 0.69899 0.949851
101 1 0.588029 0.542111 0.846462
80 1 0.423502 0.501841 0.813146
243 1 0.457124 0.624446 0.931867
188 1 0.590783 0.672482 0.921469
275 1 0.361618 0.656543 0.816867
69 1 0.630961 0.741263 0.787005
193 1 0.607066 0.885462 0.0708854
125 1 0.477379 0.952984 0.134448
330 2 0.444329 0.862456 0.0598282
212 1 0.511856 0.796814 0.151253
250 1 0.657305 0.766427 0.191949
142 1 0.340563 0.806491 0.116712
336 2 0.336159 0.932352 0.152357
180 1 0.58342 0.889253 0.247486
255 1 0.356963 0.960638 0.028565
89 1 0.62622 0.833402 0.386784
223 1 0.612304 0.98197 0.368072
337 2 0.571616 0.905962 0.476458
169 1 0.464933 0.91663 0.376898
281 1 0.493196 0.799404 0.467237
340 2 0.371314 0.962748 0.306099
60 1 0.514047 0.759454 0.311034
31 1 0.392987 0.844431 0.256916
61 1 0.395114 0.773915 0.695698
218 1 0.369132 0.963258 0.661126
298 2 0.467014 0.830768 0.599674
285 1 0.542685 0.824665 0.703411
253 1 0.37405 0.924245 0.511343
288 1 0.525586 0.947305 0.600444
202 1 0.61561 0.817766 0.563995
307 2 0.514544 0.941818 0.734166
308 2 0.648183 0.925629 0.599436
124 1 0.599108 0.907236 0.83409
301 2 0.639509 0.796311 0.904199
216 1 0.432815 0.892585 0.806859
91 1 0.666431 0.979964 0.957212
242 1 0.504445 0.931322 0.973727
155 1 0.378598 0.827696 0.959307
276 1 0.491699 0.759625 0.849029
121 1 0.521108 0.779817 0.998982
292 2 0.34462 0.78048 0.814553
339 2 0.380888 0.950175 0.904151
150 1 0.77876 0.171499 0.187098
237 1 0.928741 0.22653 0.149741
313 2 0.88959 0.0937776 0.150017
92 1 0.812771 0.0197106 0.222079
32 1 0.825878 0.131235 0.0499046
151 1 0.693386 0.0515995 0.0951367
278 1 0.995728 0.102246 0.0586932
112 1 0.976805 0.0091119 0.191283
185 1 0.930206 0.235263 0.00017845
247 1 0.977912 0.119666 0.413937
244 1 0.758466 0.0712754 0.345675
46 1 0.851889 0.185652 0.409283
345 2 0.683075 0.0870721 0.440854
183 1 0.920335 0.14185 0.274517
102 1 0.836291 0.0355994 0.491249
63 1 0.705316 0.219607 0.3237
146 1 0.903577 0.00132158 0.341736
358 2 0.972854 0.0137029 0.499908
59 1 0.984609 0.209823 0.672373
19 1 0.770806 0.156579 0.553214
293 2 0.917533 0.162019 0.528984
195 1 0.904531 0.0708066 0.627127
87 1 0.824682 0.236936 0.69971
220 1 0.75042 0.0847001 0.733631
282 1 0.936967 0.0325742 0.943941
352 2 0.96392 0.164437 0.892434
70 1 0.821341 0.192644 0.906686
14 1 0.907804 0.126057 0.772974
239 1 0.794469 0.0498725 0.872678
139 1 0.687174 0.130655 0.957686
297 2 0.796779 0.0139343 0.989244
256 1 0.950861 0.393907 0.224086
277 1 0.722815 0.317529 0.190084
22 1 0.856669 0.362729 0.114248
287 1 0.813096 0.479727 0.207366
189 1 0.89158 0.4948 0.013342
158 1 0.991526 0.371985 0.0412427
93 1 0.757387 0.269605 0.0301871
181 1 0.732824 0.409738 0.334927
28 1 0.921802 0.360079 0.413053
238 1 0.849577 0.285253 0.29117
323 2 0.86129 0.42172 0.308433
284 1 0.820361 0.466907 0.479828
5 1 0.752722 0.302246 0.457767
104 1 0.959637 0.427462 0.565787
137 1 0.79824 0.406677 0.624924
232 1 0.70384 0.281127 0.615899
269 1 0.874431 0.278491 0.561807
41 1 0.929542 0.345258 0.682411
319 2 0.781792 0.498946 0.70446
64 1 0.808571 0.363286 0.786835
226 1 0.897391 0.477988 0.776315
283 1 0.893048 0.40123 0.908786
304 2 0.739219 0.299988 0.883796
96 1 0.940994 0.275488 0.834561
170 1 0.736586 0.416199 0.98617
342 2 0.985282 0.389573 0.793279
57 1 0.682244 0.252137 0.783246
18 1 0.802898 0.635834 0.0181036
106 1 0.776003 0.644443 0.247477
2 1 0.8995 0.602595 0.134621
52 1 0.889179 0.739796 0.235029
295 2 0.767646 0.518562 0.0822326
176 1 0.924067 0.72173 0.0172968
260 1 0.68703 0.634434 0.121434
98 1 0.95199 0.566824 0.258752
257 1 0.835556 0.536691 0.355076
119 1 0.818184 0.699405 0.385395
108 1 0.904685 0.611897 0.483325
230 1 0.696202 0.569214 0.407453
279 1 0.974191 0.699211 0.351176
143 1 0.974922 0.51304 0.401427
99 1 0.679541 0.71042 0.481186
9 1 0.722678 0.725113 0.643087
154 1 0.744141 0.580208 0.571441
68 1 0.89245 0.694758 0.631488
86 1 0.883355 0.550235 0.63036
332 2 0.807514 0.690321 0.523123
214 1 0.798986 0.641759 0.746593
227 1 0.73527 0.695564 0.887386
248 1 0.671393 0.550923 0.980132
75 1 0.881919 0.603045 0.882393
331 2 0.796056 0.517776 0.939109
50 1 0.751344 0.507128 0.822949
159 1 0.971145 0.628566 0.751247
145 1 0.726773 0.905948 0.177178
148 1 0.791803 0.786009 0.12188
79 1 0.962393 0.838813 0.114956
251 1 0.878463 0.976884 0.0869266
48 1 0.766491 0.893774 0.020755
167 1 0.678304 0.754966 0.0222058
263 1 0.869851 0.884838 0.242516
192 1 0.845671 0.88786 0.428081
129 1 0.748423 0.804983 0.305319
110 1 0.918967 0.769828 0.48443
289 2 0.741212 0.802553 0.43262
306 2 0.896967 0.798135 0.360795
347 2 0.775361 0.937418 0.318012
258 1 0.696975 0.941426 0.478578
187 1 0.988805 0.906278 0.409101
95 1 0.681464 0.861947 0.713491
163 1 0.766871 0.831964 0.547264
115 1 0.993901 0.916232 0.716681
135 1 0.915043 0.917534 0.569515
72 1 0.850418 0.822092 0.713634
272 1 0.770824 0.966462 0.633409
71 1 0.913648 0.873705 0.978916
357 2 0.717128 0.959975 0.785943
6 1 0.869583 0.759312 0.852758
356 2 0.907392 0.885718 0.847931
221 1 0.770491 0.872761 0.867907
334 2 0.750625 0.776876 0.785409
302 2 0.818225 0.765301 0.971988
138 1 0.845346 0.968628 0.767041
359 2 0.986227 0.782011 0.912376
120 1 0.999476 0.782715 0.774846
ITEM: TIMESTEP
70000
ITEM: NUMBER OF ATOMS
360
ITEM: BOX BOUNDS pp pp pp
0.0000000000000000e+00 6.6943295008216896e+00
0.0000000000000000e+00 6.6943295008216896e+00
0.0000000000000000e+00 6.6943295008216896e+00
ITEM: ATOMS id type xs ys zs
84 1 0.284593 0.161189 0.0454658
237 1 0.0658884 0.119504 0.138464
274 1 0.293858 0.207238 0.222556
354 2 0.176012 0.108442 0.0362903
341 2 0.20323 0.142293 0.177142
116 1 0.233887 0.0203355 0.113582
336 2 0.324247 0.0352317 0.0147882
65 1 0.170119 0.246316 0.103353
169 1 0.231878 0.0802099 0.287153
117 1 0.0912957 0.0422393 0.268364
178 1 0.129924 0.149756 0.396812
203 1 0.289284 0.17143 0.405678
128 1 0.0901228 0.00282078 0.432107
77 1 0.140291 0.221409 0.255572
107 1 0.240778 0.0404381 0.488008
24 1 0.00131868 0.189079 0.296205
100 1 0.173915 0.0389529 0.640909
218 1 0.0926934 0.160707 0.658046
299 2 0.300744 0.118077 0.574037
141 1 0.258898 0.18864 0.677178
253 1 0.198395 0.189128 0.528424
298 2 0.0822824 0.141492 0.519569
14 1 0.16298 0.214187 0.798366
134 1 0.279876 0.245387 0.883799
34 1 0.113637 0.200359 0.951905
132 1 0.262799 0.0821197 0.901905
335 2 0.303934 0.167905 0.790528
346 2 0.138085 0.0761561 0.915752
30 1 0.145768 0.0670431 0.794205
286 1 0.00808613 0.233464 0.776836
70 1 0.00598541 0.100895 0.880385
276 1 0.294877 0.0450281 0.748934
161 1 0.123719 0.399742 0.129015
54 1 0.27074 0.372208 0.0978173
6 1 0.0869365 0.484221 0.00513583
114 1 0.0103332 0.263306 0.142703
280 1 0.209126 0.309805 0.397942
290 2 0.310919 0.442995 0.293467
333 2 0.317194 0.302375 0.459441
22 1 0.076838 0.368268 0.277227
53 1 0.182933 0.482387 0.345257
229 1 0.0960314 0.396088 0.433335
318 2 0.0618773 0.272447 0.386033
90 1 0.305722 0.433581 0.432455
13 1 0.232332 0.349741 0.25659
231 1 0.274501 0.366418 0.557312
62 1 0.208876 0.479869 0.654726
268 1 0.0858253 0.39807 0.596061
311 2 0.291267 0.310153 0.670354
182 1 0.0549508 0.259791 0.517871
59 1 0.165367 0.29802 0.650783
353 2 0.0313352 0.293445 0.657645
329 2 0.309999 0.478944 0.576812
327 2 0.171441 0.316107 0.525403
270 1 0.187476 0.496157 0.509831
64 1 0.0519165 0.382211 0.738742
245 1 0.124247 0.449518 0.860598
41 1 0.00343987 0.318989 0.904829
194 1 0.264605 0.40328 0.933227
296 2 0.116358 0.324766 0.855374
249 1 0.225361 0.359598 0.791512
50 1 0.134481 0.345246 0.985874
294 2 0.237091 0.283456 1.00141
166 1 0.313698 0.535536 0.0106826
204 1 0.309554 0.663087 0.111832
8 1 0.0448013 0.636035 0.12931
140 1 0.18445 0.584953 0.0823796
88 1 0.161575 0.741501 0.149436
332 2 0.0854957 0.656909 0.247219
143 1 0.111816 0.528823 0.222825
206 1 0.262663 0.526481 0.205224
310 2 0.0417875 0.509866 0.126119
105 1 0.0692131 0.575127 0.399582
73 1 0.294511 0.725946 0.401953
236 1 0.0952766 0.727646 0.386693
323 2 0.200385 0.593226 0.419613
209 1 0.198355 0.647562 0.29356
126 1 0.321798 0.559506 0.35115
240 1 0.30321 0.593893 0.495416
291 2 0.231899 0.596846 0.600102
23 1 0.168633 0.661281 0.674698
37 1 0.00562958 0.673917 0.515515
216 1 0.303355 0.703715 0.619814
147 1 0.0899273 0.563893 0.595613
330 2 0.278101 0.634766 0.733717
201 1 0.171981 0.683928 0.51666
130 1 0.19242 0.678217 0.827423
94 1 0.255935 0.520639 0.811381
113 1 0.0863605 0.594519 0.899083
342 2 0.209059 0.51639 0.944895
275 1 0.0611672 0.550311 0.749974
25 1 0.23746 0.723717 0.983676
219 1 0.330555 0.637591 0.889768
7 1 0.231728 0.865503 0.052768
338 2 0.26068 0.823343 0.164292
174 1 0.315534 0.949649 0.234527
234 1 0.0749522 0.833807 0.0594429
17 1 0.151954 0.902687 0.189073
199 1 0.0176841 0.792168 0.205585
313 2 0.0994388 0.984604 0.0915231
282 1 0.00293156 0.986446 0.00773998
265 1 0.207568 0.939467 0.343057
149 1 0.0321829 0.822984 0.478065
205 1 0.202424 0.838852 0.447302
1 1 0.0565875 0.887559 0.323929
123 1 0.227202 0.792121 0.285181
261 1 0.11665 0.795589 0.610035
319 2 0.301609 0.800747 0.536519
136 1 0.0838324 0.939737 0.57611
356 2 0.0551137 0.872967 0.680517
33 1 0.23316 0.897329 0.583711
155 1 0.162272 0.919783 0.743075
39 1 0.243965 0.78773 0.744958
195 1 0.0248658 1.00346 0.719487
11 1 0.189104 0.847413 0.900402
352 2 0.212721 0.966023 0.843832
207 1 0.306009 0.932195 0.938897
278 1 0.0770376 0.944101 0.868024
120 1 0.0702475 0.789736 0.779416
21 1 0.158766 0.970304 0.991469
188 1 0.322492 0.789741 0.870025
4 1 0.0789327 0.75219 0.934413
184 1 0.359589 0.0888779 0.169985
254 1 0.587397 0.137571 0.179542
55 1 0.519804 0.0220991 0.110306
173 1 0.453538 0.216332 0.21445
242 1 0.468892 0.162005 0.0482356
217 1 0.641715 0.108479 0.0300309
316 2 0.37981 0.245142 0.114266
340 2 0.363672 0.140535 0.305123
246 1 0.445703 0.193566 0.387434
165 1 0.571257 0.0855459 0.435815
58 1 0.482453 0.0827121 0.28701
36 1 0.586284 0.198133 0.319228
168 1 0.352168 0.0264615 0.361521
233 1 0.408954 0.086847 0.499257
213 1 0.56338 0.241523 0.478325
103 1 0.519359 0.24209 0.628154
337 2 0.506535 0.148868 0.532371
153 1 0.620866 0.132507 0.588476
16 1 0.520998 0.024674 0.576374
83 1 0.412863 0.127517 0.673413
264 1 0.369481 0.241911 0.55885
358 2 0.632927 0.0225087 0.656705
82 1 0.565161 0.103527 0.737984
122 1 0.657979 0.232714 0.700418
339 2 0.456067 0.0224739 0.721532
78 1 0.55548 0.117285 0.895012
271 1 0.435378 0.037042 0.959213
228 1 0.422443 0.107164 0.819
320 2 0.511832 0.209853 0.765287
349 2 0.373336 0.159441 0.950247
292 2 0.361005 0.00874322 0.863177
321 2 0.635087 0.198341 0.848406
40 1 0.451156 0.24648 0.88576
157 1 0.588571 0.249649 0.963495
348 2 0.584691 0.279042 0.198387
252 1 0.516969 0.301185 0.0902062
38 1 0.395763 0.359882 0.193916
248 1 0.524001 0.46287 0.186134
164 1 0.647109 0.411401 0.0927741
266 1 0.434256 0.433705 0.0677616
63 1 0.646035 0.387367 0.250581
42 1 0.51342 0.328873 0.304185
222 1 0.593012 0.423106 0.412009
267 1 0.441851 0.341551 0.458879
322 2 0.630766 0.309809 0.36688
197 1 0.359671 0.310896 0.338066
66 1 0.441144 0.447322 0.336889
74 1 0.460657 0.491879 0.48302
196 1 0.416121 0.392892 0.592504
360 2 0.664217 0.252602 0.572159
179 1 0.576836 0.364042 0.557831
210 1 0.381252 0.257809 0.745382
35 1 0.666537 0.38375 0.691717
27 1 0.49994 0.353632 0.723257
49 1 0.349423 0.424029 0.71983
212 1 0.522681 0.489273 0.647407
305 2 0.342013 0.337571 0.825145
259 1 0.566462 0.41225 0.971669
76 1 0.454821 0.401171 0.868866
171 1 0.36945 0.306966 0.993298
160 1 0.600528 0.316964 0.828313
312 2 0.569223 0.446786 0.82309
260 1 0.581766 0.593752 0.154053
81 1 0.429846 0.578165 0.127932
180 1 0.481021 0.723248 0.0835521
355 2 0.401557 0.51108 0.231955
328 2 0.576026 0.513804 0.0565965
15 1 0.540774 0.713967 0.230657
47 1 0.34966 0.689483 0.256272
133 1 0.443306 0.631644 0.418147
262 1 0.587378 0.591426 0.424664
44 1 0.492568 0.582575 0.282899
181 1 0.639317 0.545096 0.287762
303 2 0.540084 0.684016 0.353037
20 1 0.553924 0.727002 0.473302
301 2 0.425472 0.693502 0.642723
152 1 0.641733 0.529203 0.74389
334 2 0.617439 0.645029 0.644044
202 1 0.538462 0.655425 0.749759
118 1 0.411572 0.740172 0.520578
95 1 0.503696 0.622869 0.578824
80 1 0.367342 0.567731 0.660319
224 1 0.630993 0.505679 0.539365
142 1 0.473311 0.681382 0.887578
308 2 0.606451 0.704593 0.866845
69 1 0.43976 0.531776 0.794208
227 1 0.575115 0.564206 0.875279
243 1 0.470047 0.55094 0.983706
167 1 0.590911 0.661019 0.993115
359 2 0.393541 0.653297 1.00418
315 2 0.357283 0.49565 0.896588
281 1 0.387883 0.711636 0.757298
124 1 0.530582 0.85983 0.123275
10 1 0.367278 0.793482 0.0131842
255 1 0.40047 0.944084 0.0893024
151 1 0.660108 0.939547 0.096346
31 1 0.391923 0.804786 0.169328
263 1 0.589 0.971316 0.236697
351 2 0.439271 0.992933 0.19872
79 1 0.620757 0.939412 0.483931
89 1 0.579782 0.83738 0.371
43 1 0.438385 0.773004 0.365631
145 1 0.491046 0.960242 0.40281
235 1 0.458057 0.897446 0.276129
324 2 0.354007 0.81379 0.291827
309 2 0.617334 0.985888 0.364703
131 1 0.34852 0.898891 0.470249
223 1 0.481916 0.874359 0.535685
99 1 0.536781 0.763657 0.631907
3 1 0.365345 0.977193 0.610212
288 1 0.518497 0.919833 0.685399
200 1 0.398466 0.837569 0.653336
307 2 0.618825 0.826578 0.743767
258 1 0.660374 0.905858 0.625421
272 1 0.497937 0.814782 0.795543
198 1 0.515331 0.979107 0.817636
221 1 0.473433 0.875204 0.938107
317 2 0.58815 0.872017 0.870774
285 1 0.364873 0.917702 0.768793
125 1 0.617896 0.819346 0.974781
208 1 0.586234 0.976145 0.950015
45 1 0.655396 0.960592 0.770505
139 1 0.811641 0.172773 0.0961131
357 2 0.765154 0.0633893 0.00664173
183 1 0.932715 0.0982261 0.203585
185 1 0.973262 0.187692 0.0162288
186 1 0.711362 0.0624552 0.148553
345 2 0.799507 0.132245 0.218677
32 1 0.848142 0.0140939 0.0886081
244 1 0.712602 0.233478 0.23936
150 1 0.669664 0.244144 0.0930964
251 1 0.814348 0.0103168 0.247119
146 1 0.726356 0.0596851 0.440188
46 1 0.704717 0.212927 0.424219
111 1 0.970411 0.152198 0.454158
247 1 0.864649 0.0312134 0.497761
92 1 0.851426 0.140908 0.339026
306 2 0.827636 0.00505895 0.37813
344 2 0.83372 0.148172 0.460658
56 1 0.958856 0.0222519 0.355841
102 1 0.685761 0.0841547 0.292718
87 1 0.77796 0.172308 0.574593
211 1 0.728485 0.0936546 0.740448
326 2 0.981765 0.128567 0.715877
293 2 0.868758 0.0938176 0.61482
19 1 0.849369 0.19171 0.723309
226 1 0.927219 0.213768 0.611945
135 1 0.743866 0.0305348 0.59662
241 1 0.988561 0.0620031 0.587715
273 1 0.887355 0.208808 0.884095
220 1 0.876363 0.0560378 0.937772
96 1 0.75206 0.198219 0.946134
314 2 0.797619 0.127972 0.831508
177 1 0.891486 0.040826 0.785001
191 1 0.706143 0.0616856 0.892223
283 1 0.808342 0.439732 0.03752
189 1 0.94127 0.389294 0.210838
277 1 0.789685 0.382675 0.175329
158 1 0.86733 0.304033 0.0502845
97 1 0.969364 0.413865 0.069604
93 1 0.874122 0.256268 0.221307
238 1 0.856242 0.422405 0.44683
256 1 0.926649 0.314584 0.358659
104 1 0.978205 0.468627 0.337337
190 1 0.759058 0.340701 0.349808
269 1 0.851654 0.277222 0.484394
284 1 0.824039 0.489334 0.27435
5 1 0.711599 0.364001 0.493476
68 1 0.945706 0.357288 0.568901
137 1 0.779963 0.45749 0.584727
28 1 0.789434 0.306395 0.639529
86 1 0.789118 0.456621 0.745887
67 1 0.948435 0.485336 0.663537
232 1 0.904791 0.347423 0.730848
109 1 0.993689 0.490853 0.51463
12 1 0.952244 0.465003 0.822926
144 1 0.855357 0.377103 0.896788
57 1 0.759035 0.281815 0.808881
225 1 0.72195 0.336574 0.98285
29 1 0.695566 0.430801 0.863946
331 2 0.972269 0.432336 0.954119
170 1 0.725492 0.522152 0.150209
51 1 0.90265 0.53529 0.137439
295 2 0.689107 0.640456 0.0661353
18 1 0.813678 0.623788 0.0540156
108 1 0.722714 0.660277 0.191515
98 1 0.87469 0.734517 0.184454
2 1 0.958773 0.714095 0.0340985
85 1 0.964621 0.61353 0.257469
230 1 0.811933 0.63159 0.313446
60 1 0.673502 0.690154 0.353529
257 1 0.828521 0.701562 0.457566
163 1 0.92201 0.578188 0.416677
154 1 0.751208 0.51782 0.414734
215 1 0.946981 0.737753 0.367775
61 1 0.882099 0.581179 0.569192
9 1 0.739683 0.593219 0.650618
159 1 0.993769 0.677502 0.689358
110 1 0.842585 0.717863 0.634314
162 1 0.701719 0.642561 0.510493
350 2 0.757091 0.61109 0.797629
106 1 0.958293 0.674748 0.873183
250 1 0.716467 0.655752 0.90929
302 2 0.848982 0.653153 0.938786
75 1 0.82547 0.526817 0.903395
127 1 0.691569 0.533791 0.982944
214 1 0.680341 0.707775 0.75413
287 1 0.951861 0.557572 0.988688
239 1 0.821872 0.732444 0.828291
101 1 0.880623 0.595914 0.755453
112 1 0.926304 0.864259 0.0859783
297 2 0.712524 0.955424 0.218767
148 1 0.79344 0.877911 0.152746
193 1 0.700088 0.762614 0.0875499
129 1 0.662933 0.831444 0.227846
176 1 0.993214 0.957286 0.172457
192 1 0.708946 0.796128 0.461717
52 1 0.91232 0.866816 0.261178
187 1 0.888431 0.867612 0.416841
347 2 0.751503 0.937016 0.488755
119 1 0.719925 0.926367 0.338623
156 1 0.795789 0.779559 0.319065
343 2 0.964117 0.939427 0.507848
138 1 0.779746 0.842643 0.701067
172 1 0.819718 0.856497 0.553562
72 1 0.954797 0.822474 0.6253
115 1 0.881208 0.964451 0.653684
289 2 0.778909 0.962717 0.727604
300 2 0.924868 0.768049 0.519472
279 1 0.688608 0.753386 0.609503
121 1 0.704107 0.831552 0.856068
48 1 0.816028 0.922161 0.843003
325 2 0.882155 0.934293 0.977068
71 1 0.960421 0.848467 0.92023
304 2 0.941342 0.965952 0.863011
91 1 0.754608 0.923178 0.979863
26 1 0.829099 0.774448 0.990597
175 1 0.935414 0.86653 0.766842
ITEM: TIMESTEP
140000
ITEM: NUMBER OF ATOMS
360
ITEM: BOX BOUNDS pp pp pp
0.0000000000000000e+00 6.6943295008216896e+00
0.0000000000000000e+00 6.6943295008216896e+00
0.0000000000000000e+00 6.6943295008216896e+00
ITEM: ATOMS id type xs ys zs
65 1 0.134604 0.207092 0.130476
341 2 0.00556509 0.20183 0.179379
21 1 0.208768 0.0799748 0.0659631
209 1 0.280044 0.175108 0.165935
17 1 0.0475314 0.0822777 0.160267
292 2 0.0279314 0.0283605 0.0141703
336 2 0.29267 0.0613654 0.227239
139 1 0.019484 0.158683 -0.00324592
351 2 0.324731 0.123537 0.0400583
84 1 0.274877 0.247073 0.0224853
77 1 0.113828 0.107518 0.427461
42 1 0.294008 0.232408 0.31316
318 2 0.234599 0.128801 0.373306
100 1 0.247938 0.0250388 0.466367
24 1 0.153322 0.24629 0.37634
310 2 0.0731862 0.152552 0.303848
348 2 0.181871 0.248867 0.252479
274 1 0.179361 0.119162 0.260166
354 2 0.0862432 0.227413 0.4847
111 1 0.244688 0.187697 0.484545
218 1 0.161333 0.0628824 0.594447
286 1 0.290552 0.1661 0.637224
270 1 0.0481751 0.202514 0.710637
56 1 0.0117314 0.125543 0.55258
115 1 0.0256622 0.0578715 0.689834
27 1 0.141283 0.215497 0.600639
220 1 0.176246 0.107364 0.746573
282 1 0.154138 0.068891 0.920263
276 1 0.313675 0.0638028 0.93486
34 1 0.0844513 0.219786 0.863161
132 1 0.233132 0.189112 0.87871
217 1 0.0214135 0.083574 0.846853
78 1 0.297953 0.0126675 0.773525
346 2 0.153619 0.184222 0.994785
340 2 0.215141 0.456659 0.167994
266 1 0.222817 0.387668 0.0514091
280 1 0.240061 0.340769 0.19428
104 1 0.0910818 0.361064 0.15345
331 2 0.0862875 0.489513 0.118529
315 2 0.306966 0.481009 0.00355054
233 1 0.31221 0.312814 0.425809
189 1 0.175329 0.395872 0.336038
90 1 0.00574357 0.504639 0.345406
117 1 0.0511954 0.274944 0.274321
256 1 0.0473712 0.341062 0.457155
105 1 0.109067 0.469245 0.471044
306 2 0.0493521 0.401041 0.264913
329 2 0.259387 0.444528 0.467206
240 1 0.226844 0.429656 0.611547
196 1 0.0724425 0.387257 0.598479
253 1 0.18462 0.330368 0.502641
301 2 0.273509 0.299503 0.597323
291 2 0.0164087 0.485614 0.65193
64 1 0.145385 0.476244 0.74086
50 1 0.317363 0.478219 0.734902
171 1 0.314652 0.324325 0.847241
94 1 0.223776 0.433899 0.893127
41 1 0.0768303 0.398788 0.850092
349 2 0.200681 0.308457 0.924832
54 1 0.18282 0.29534 0.749814
275 1 0.0975096 0.476505 0.99333
13 1 0.103914 0.302711 0.993041
22 1 0.205107 0.54348 0.0808952
74 1 0.292855 0.546861 0.216245
113 1 0.0769045 0.615214 0.140322
81 1 0.248718 0.684076 0.108315
295 2 0.0512368 0.743914 0.216055
126 1 0.181462 0.662864 0.280746
47 1 0.318738 0.658896 0.390687
140 1 0.0207463 0.617719 0.465457
25 1 0.174632 0.643713 0.466057
298 2 0.130075 0.57228 0.372149
212 1 0.250825 0.53247 0.376864
63 1 0.031864 0.644529 0.295684
85 1 0.139348 0.513392 0.251786
80 1 0.243805 0.607202 0.691705
73 1 0.288173 0.563389 0.52437
147 1 0.106868 0.694351 0.634261
231 1 0.119784 0.54615 0.601213
33 1 0.264321 0.705606 0.57417
319 2 0.210097 0.737529 0.693453
339 2 0.107665 0.598327 0.732747
23 1 0.0972091 0.557447 0.873665
245 1 0.256646 0.577856 0.929943
342 2 0.0637038 0.703431 0.891716
330 2 0.231958 0.545175 0.813049
120 1 0.189514 0.667825 0.816957
287 1 0.141821 0.664993 0.98711
296 2 0.289937 0.717549 0.870162
175 1 0.0170385 0.666544 0.779427
219 1 0.119078 0.948522 0.0546327
236 1 0.159423 0.967211 0.207366
7 1 0.221616 0.842969 0.104289
4 1 0.0837829 0.770163 0.0971179
234 1 0.0330026 0.884345 0.176052
313 2 0.252264 0.965327 0.113035
174 1 0.322611 0.900167 0.208942
352 2 0.00772117 0.882048 0.0416896
88 1 0.287498 0.753065 0.241405
324 2 0.242999 0.871314 0.322591
123 1 0.217171 0.768445 0.394958
332 2 0.0272838 0.856788 0.317853
178 1 0.146453 0.901305 0.402259
128 1 0.0552768 0.999176 0.318941
163 1 0.0566171 0.750718 0.39908
205 1 0.277069 0.874027 0.489329
130 1 0.141734 0.820722 0.268275
169 1 0.263113 0.991411 0.324932
226 1 0.0512441 0.907308 0.635155
353 2 0.185094 0.937061 0.549187
3 1 0.219236 0.847549 0.645665
314 2 0.160195 0.964793 0.683277
14 1 0.133627 0.802401 0.530344
155 1 0.288192 0.976434 0.614564
136 1 0.100635 0.795422 0.745901
265 1 0.0533478 0.986514 0.506358
48 1 0.136055 0.967927 0.812284
195 1 0.249083 0.825279 0.790138
71 1 0.259107 0.776847 0.975894
278 1 0.219052 0.922794 0.928538
112 1 0.0206495 0.93553 0.91508
11 1 0.114055 0.818937 0.909437
150 1 0.554007 0.214924 0.246896
235 1 0.595155 0.154176 0.0771492
55 1 0.526758 0.0432152 0.179661
242 1 0.436571 0.177237 0.0798063
116 1 0.365114 0.0297166 0.130905
36 1 0.662488 0.110473 0.219598
254 1 0.40191 0.13835 0.242083
186 1 0.596413 0.00109475 0.0236028
151 1 0.448068 0.0411731 -0.00430029
264 1 0.509686 0.148267 0.430819
173 1 0.363313 0.112498 0.388482
305 2 0.388669 0.219297 0.46576
309 2 0.50763 0.105945 0.316044
335 2 0.601806 0.0444031 0.465314
263 1 0.589533 0.00913281 0.319863
58 1 0.644781 0.142163 0.36495
321 2 0.632729 0.217429 0.686347
246 1 0.401074 0.0740278 0.529794
30 1 0.416982 0.0537235 0.668859
82 1 0.55514 0.102889 0.568807
40 1 0.541459 0.126772 0.739249
59 1 0.425871 0.213 0.585804
316 2 0.469772 0.202752 0.818283
208 1 0.544409 0.13131 0.914224
76 1 0.597952 0.248438 0.830491
184 1 0.395544 0.209791 0.935262
134 1 0.355561 0.157111 0.783024
320 2 0.641369 0.111874 0.813881
271 1 0.444259 0.0466574 0.844493
259 1 0.510098 0.407633 0.0877327
38 1 0.393683 0.284374 0.178789
277 1 0.638956 0.320232 0.151776
345 2 0.51741 0.278018 0.126763
127 1 0.645002 0.438031 0.0201791
51 1 0.5233 0.365734 0.23444
166 1 0.350476 0.442284 0.127841
252 1 0.536419 0.278518 -0.00377752
262 1 0.390172 0.473398 0.453512
269 1 0.657249 0.409757 0.303214
154 1 0.590308 0.301333 0.392144
181 1 0.513387 0.432954 0.368047
222 1 0.437035 0.289914 0.338392
197 1 0.351623 0.408443 0.285317
103 1 0.486483 0.333781 0.492757
267 1 0.639751 0.401633 0.493815
43 1 0.525184 0.500177 0.522858
28 1 0.553436 0.393803 0.631909
203 1 0.372655 0.388764 0.573557
333 2 0.433835 0.393649 0.681792
141 1 0.345405 0.291036 0.699084
210 1 0.509657 0.273548 0.701398