ITEM: TIMESTEP
0
ITEM: NUMBER OF ATOMS
360
ITEM: BOX BOUNDS pp pp pp
0.0000000000000000e+00 6.6943295008216896e+00
0.0000000000000000e+00 6.6943295008216896e+00
0.0000000000000000e+00 6.6943295008216896e+00
ITEM: ATOMS id type xs ys zs
35 1 0.169721 0.0746031 0.125052
258 1 0.0964643 0.19171 0.184357
263 1 0.17708 0.211418 0.0289623
304 2 0.054687 0.144136 0.0447335
211 1 0.00778987 0.0386031 0.193146
352 2 0.280897 0.114341 0.0555006
333 2 0.318722 0.1693 0.359875
3 1 0.131025 0.0790496 0.282485
161 1 0.308507 0.0316065 0.307442
12 1 0.074974 0.212663 0.425759
357 2 0.294336 0.0462962 0.459079
328 2 0.0833775 0.0477999 0.402468
300 2 0.111966 0.237461 0.308018
153 1 0.207414 0.13665 0.411963
41 1 0.233137 0.17698 0.261722
40 1 0.329659 0.248403 0.4882
1 1 0.101363 0.0891868 0.510638
266 1 0.142958 0.114219 0.670287
317 2 0.262083 0.108771 0.713876
70 1 0.253926 0.116195 0.561184
350 2 0.057344 0.0380233 0.726077
287 1 0.283276 0.231662 0.657801
213 1 0.171809 0.242792 0.537025
253 1 0.014038 0.186717 0.591009
286 1 0.000793902 0.165205 0.763271
348 2 0.147607 0.20204 0.776482
134 1 0.157463 0.0712721 0.809321
61 1 0.228994 0.0963299 0.942585
259 1 0.0959209 0.172833 0.897062
38 1 0.279725 0.200074 0.83422
282 1 0.130149 0.448363 0.133759
10 1 0.272847 0.413179 0.049859
114 1 0.044948 0.273677 0.052221
359 2 0.159956 0.323162 0.0831066
185 1 0.277308 0.437866 0.195838
25 1 0.174559 0.328083 0.211404
27 1 0.317418 0.250818 0.116622
96 1 0.0756171 0.42053 0.290034
94 1 0.230283 0.27394 0.378843
100 1 0.105779 0.373548 0.436753
245 1 0.221386 0.423998 0.342088
295 2 0.198817 0.458943 0.468005
138 1 0.307925 0.304932 0.253994
212 1 0.270969 0.369951 0.528841
62 1 0.121886 0.411705 0.579625
87 1 0.242304 0.398265 0.681293
135 1 0.0944509 0.296476 0.691861
297 2 0.0398401 0.310778 0.552264
192 1 0.065764 0.452801 0.839933
143 1 0.0498491 0.304974 0.856197
112 1 0.308028 0.353843 0.901985
57 1 0.15169 0.38492 0.961938
224 1 0.192502 0.345988 0.811493
255 1 0.216505 0.482346 0.871295
291 2 0.194882 0.260205 0.905432
65 1 0.249397 0.560133 0.124988
182 1 0.212805 0.690052 0.218079
347 2 0.0789054 0.66551 0.21338
321 2 0.262085 0.697758 0.104277
173 1 0.100301 0.644548 0.091264
298 2 0.299361 0.603701 0.245454
205 1 0.00612918 0.537383 0.195941
162 1 0.32273 0.63738 0.0135357
167 1 0.157022 0.554742 0.245223
193 1 0.0353596 0.616412 0.351853
207 1 0.0803827 0.522714 0.477279
294 2 0.275145 0.74986 0.42995
226 1 0.215373 0.578051 0.410866
122 1 0.186372 0.72902 0.35621
315 2 0.121981 0.508333 0.352289
56 1 0.108578 0.682034 0.482116
52 1 0.328576 0.668761 0.338675
332 2 0.0971372 0.604525 0.591084
231 1 0.189486 0.671517 0.649118
305 2 0.30646 0.614027 0.613792
29 1 0.268804 0.555352 0.727135
5 1 0.215826 0.521044 0.580103
355 2 0.226159 0.647921 0.52077
244 1 0.10953 0.525582 0.696311
340 2 0.013161 0.598029 0.73141
6 1 0.0180711 0.710469 0.623785
172 1 0.322301 0.702706 0.702382
354 2 0.21666 0.691822 0.769488
85 1 0.121255 0.607525 0.837085
285 1 0.172211 0.696461 0.938233
71 1 0.285271 0.622674 0.868353
351 2 0.218572 0.538816 0.986607
169 1 0.0980061 0.731275 0.756159
8 1 0.0815792 0.515519 0.994971
42 1 0.0240976 0.726349 0.953884
222 1 0.144678 0.787105 0.0868621
115 1 0.0755011 0.799475 0.230283
238 1 0.118783 0.934869 0.107123
171 1 0.252006 0.977327 0.0343842
279 1 0.268694 0.819783 0.168279
51 1 0.190755 0.938068 0.241652
349 2 0.284591 0.977416 0.169399
75 1 0.289459 0.812016 0.003351
175 1 0.271315 0.858648 0.332052
168 1 0.180983 0.972904 0.397007
276 1 0.0355228 0.936173 0.441238
334 2 0.140896 0.86594 0.325882
101 1 0.168432 0.839544 0.459534
284 1 0.315079 0.889231 0.474291
26 1 0.0450279 0.932046 0.294215
117 1 0.0249542 0.77403 0.376886
343 2 0.0436692 0.786931 0.495275
330 2 0.0163847 0.82706 0.677904
91 1 0.115408 0.822078 0.607431
147 1 0.326142 0.870121 0.629412
242 1 0.0638118 0.977216 0.60728
216 1 0.207631 0.965767 0.546707
88 1 0.239543 0.990104 0.692772
187 1 0.226556 0.812404 0.722268
113 1 0.25253 0.764099 0.5493
104 1 0.247917 0.923688 0.878379
127 1 0.125752 0.920096 0.761696
262 1 0.132293 0.848187 0.955348
318 2 0.174737 0.799295 0.844128
90 1 0.0224254 0.838798 0.832593
132 1 0.312573 0.80245 0.861748
13 1 0.109189 0.999954 0.965579
214 1 0.382908 0.0668719 0.000636523
86 1 0.337758 0.0887237 0.167032
203 1 0.468777 0.189394 0.0470054
278 1 0.524326 0.150379 0.186937
89 1 0.626428 0.144199 0.0605245
98 1 0.635964 0.0476521 0.199332
301 2 0.653582 0.179073 0.19258
271 1 0.518327 0.0179935 0.110548
146 1 0.404945 0.0916535 0.417489
230 1 0.396266 0.190873 0.272408
33 1 0.473479 0.0452611 0.288438
179 1 0.570998 0.138307 0.360252
130 1 0.462113 0.227735 0.42092
219 1 0.389614 0.0593958 0.688945
64 1 0.509446 0.0803519 0.534251
190 1 0.506423 0.241365 0.74238
72 1 0.530565 0.0910096 0.683201
195 1 0.421782 0.222072 0.618863
201 1 0.64723 0.0995739 0.593112
325 2 0.37751 0.139902 0.528155
170 1 0.56808 0.227691 0.608395
2 1 0.372158 0.0110941 0.557061
311 2 0.384927 0.176648 0.741076
324 2 0.563514 0.161611 0.947011
157 1 0.446739 0.149767 0.870699
323 2 0.471149 0.0482878 0.781108
46 1 0.596094 0.0954405 0.825266
16 1 0.542169 0.0401059 0.967415
68 1 0.623189 0.243479 0.835936
229 1 0.333353 0.212653 0.976699
128 1 0.33715 0.0437914 0.846731
274 1 0.451186 0.293524 0.174478
338 2 0.364277 0.367756 0.125838
331 2 0.51374 0.43201 0.0891599
9 1 0.57236 0.417503 0.189892
210 1 0.626848 0.475698 0.0544709
215 1 0.431572 0.336669 0.0126263
34 1 0.614423 0.29152 0.121496
241 1 0.420303 0.420555 0.24444
92 1 0.623551 0.284345 0.446443
79 1 0.502005 0.387376 0.388065
303 2 0.45981 0.299544 0.316217
156 1 0.595136 0.276025 0.288443
164 1 0.358274 0.357126 0.395913
15 1 0.66045 0.41369 0.380033
342 2 0.62759 0.285683 0.698042
197 1 0.478954 0.384267 0.694993
288 1 0.601588 0.378516 0.574713
107 1 0.451409 0.340372 0.525303
144 1 0.362365 0.473947 0.634756
310 2 0.367987 0.330096 0.641968
78 1 0.501873 0.49278 0.551013
74 1 0.360571 0.457567 0.794021
313 2 0.596436 0.392459 0.875864
265 1 0.586127 0.344177 0.98859
110 1 0.646279 0.402608 0.768031
142 1 0.474994 0.357822 0.863189
319 2 0.38068 0.266828 0.877745
20 1 0.354738 0.306346 0.760846
118 1 0.500957 0.495907 0.806004
181 1 0.337686 0.491372 0.945516
139 1 0.505359 0.484698 0.959237
198 1 0.451692 0.567966 0.236002
227 1 0.520028 0.719544 0.155315
191 1 0.576384 0.579336 0.143489
141 1 0.492275 0.635677 0.0365632
281 1 0.416537 0.504193 0.0868202
273 1 0.355884 0.682038 0.171225
358 2 0.580099 0.740327 0.0487879
151 1 0.665886 0.622119 0.0238292
248 1 0.601071 0.629802 0.475061
108 1 0.542197 0.677429 0.325954
148 1 0.474527 0.564728 0.409723
47 1 0.57904 0.520197 0.301762
21 1 0.349329 0.519259 0.338236
80 1 0.361901 0.653543 0.4904
326 2 0.648487 0.625505 0.274591
346 2 0.616958 0.5107 0.430974
111 1 0.333352 0.50933 0.479225
69 1 0.600765 0.550375 0.668223
339 2 0.386882 0.591729 0.743144
337 2 0.383575 0.745091 0.580595
55 1 0.597777 0.685274 0.618624
152 1 0.444735 0.621264 0.620431
344 2 0.485139 0.501897 0.672799
76 1 0.497986 0.734032 0.511971
4 1 0.606761 0.73866 0.894875
43 1 0.591354 0.589161 0.88326
154 1 0.428827 0.648173 0.886533
133 1 0.658545 0.680487 0.766661
109 1 0.509865 0.640512 0.759567
103 1 0.553437 0.859523 0.118201
39 1 0.374742 0.918934 0.087105
309 2 0.39511 0.808931 0.141219
37 1 0.368129 0.91504 0.235228
316 2 0.483231 0.926716 0.0363964
220 1 0.659187 0.961624 0.0649426
199 1 0.438771 0.781505 0.030395
32 1 0.415541 0.936659 0.37876
159 1 0.560263 0.838356 0.392296
188 1 0.410192 0.794611 0.400689
126 1 0.572157 0.988858 0.426898
95 1 0.45926 0.801267 0.257999
268 1 0.647601 0.781798 0.272462
345 2 0.646242 0.916393 0.346867
322 2 0.334817 0.776389 0.255643
125 1 0.568439 0.924026 0.255996
50 1 0.626991 0.989396 0.717765
82 1 0.601043 0.961384 0.572275
174 1 0.619259 0.813859 0.548713
102 1 0.493775 0.931842 0.673205
93 1 0.461007 0.768503 0.683167
120 1 0.596811 0.831398 0.744362
261 1 0.470837 0.875216 0.53734
269 1 0.573134 0.868142 0.978151
260 1 0.401542 0.905453 0.943532
155 1 0.464301 0.789776 0.832612
163 1 0.511417 0.936889 0.832633
250 1 0.372924 0.92321 0.764061
264 1 0.662104 0.967584 0.868154
194 1 0.757042 0.228861 0.143826
302 2 0.881144 0.0666228 0.16116
206 1 0.779978 0.0506285 0.0762488
256 1 0.923002 0.161287 0.109457
243 1 0.884555 0.218486 0.234731
225 1 0.789318 0.0868201 0.241582
183 1 0.953492 0.0291149 0.0452449
36 1 0.998728 0.156087 0.307891
186 1 0.949199 0.0787648 0.443215
252 1 0.705453 0.152056 0.464989
176 1 0.847513 0.170144 0.391422
202 1 0.736055 0.208935 0.300716
320 2 0.813945 0.0542421 0.374695
123 1 0.698933 0.0369946 0.349711
341 2 0.673739 0.0257164 0.47878
160 1 0.932539 0.247035 0.479686
240 1 0.768845 0.0356559 0.663972
223 1 0.916802 0.057753 0.619266
272 1 0.827658 0.174418 0.545681
137 1 0.841398 0.200543 0.695623
270 1 0.680249 0.178161 0.712206
73 1 0.804389 0.0202744 0.509922
218 1 0.953465 0.186313 0.960278
217 1 0.863055 0.0539158 0.773416
44 1 0.761419 0.184839 0.850969
106 1 0.704827 0.0721711 0.954602
314 2 0.895359 0.161091 0.83414
14 1 0.863859 0.0677055 0.923993
336 2 0.677895 0.218373 0.952009
290 2 0.746403 0.0462063 0.835369
99 1 0.998336 0.0190989 0.852238
66 1 0.80573 0.194379 0.998945
246 1 0.891659 0.304328 0.0703858
247 1 0.751761 0.371196 0.0950209
289 2 0.83127 0.328131 0.180295
48 1 0.898332 0.435612 0.147524
22 1 0.709566 0.373332 0.232211
189 1 0.99364 0.329375 0.196801
307 2 0.999552 0.453025 0.0837044
204 1 0.811619 0.458769 0.43397
116 1 0.783048 0.300906 0.465182
119 1 0.824834 0.480206 0.268591
308 2 0.898029 0.36692 0.43781
196 1 0.842009 0.336884 0.317653
208 1 0.974184 0.319988 0.354745
296 2 0.945104 0.426038 0.275002
28 1 0.968017 0.471534 0.393747
84 1 0.868009 0.323115 0.598716
53 1 0.733067 0.438769 0.656014
292 2 0.874663 0.412785 0.695006
145 1 0.713568 0.271197 0.590132
77 1 0.997579 0.438599 0.696947
24 1 0.976355 0.423982 0.532161
353 2 0.741297 0.396295 0.519534
277 1 0.948889 0.312539 0.737268
136 1 0.853851 0.48887 0.583718
165 1 0.694929 0.480579 0.92594
232 1 0.91391 0.433604 0.827613
299 2 0.783091 0.426093 0.855764
83 1 0.71987 0.337285 0.914495
17 1 0.86063 0.289823 0.885317
150 1 0.853053 0.427614 0.969561
221 1 0.998011 0.378464 0.960401
140 1 0.779806 0.326556 0.758568
149 1 0.849727 0.604216 0.178655
239 1 0.776945 0.524638 0.0588296
166 1 0.926128 0.557837 0.0510175
158 1 0.826433 0.687644 0.0484794
49 1 0.971452 0.721706 0.103067
283 1 0.703649 0.513637 0.18515
249 1 0.710551 0.687916 0.149493
254 1 0.788516 0.717252 0.283034
129 1 0.950888 0.692997 0.488666
11 1 0.717049 0.579052 0.369149
58 1 0.872727 0.59955 0.345645
81 1 0.800377 0.628247 0.492855
327 2 0.90952 0.550261 0.483869
18 1 0.947795 0.686657 0.25094
177 1 0.684094 0.742094 0.415692
360 2 0.900863 0.662768 0.683971
209 1 0.97535 0.571028 0.606525
184 1 0.754945 0.611703 0.643417
131 1 0.851083 0.735111 0.601397
251 1 0.87017 0.529842 0.725359
59 1 0.694789 0.516962 0.527759
280 1 0.808772 0.680547 0.780516
312 2 0.715875 0.61812 0.901983
97 1 0.9481 0.681128 0.808464
200 1 0.829094 0.584379 0.913039
30 1 0.716285 0.544508 0.792053
293 2 0.912623 0.660205 0.961756
121 1 0.981213 0.568679 0.89508
31 1 0.872554 0.856215 0.0431452
356 2 0.68215 0.916779 0.212117
60 1 0.832954 0.960818 0.175223
275 1 0.768062 0.832755 0.166052
124 1 0.969729 0.877957 0.148356
335 2 0.869276 0.755874 0.173698
178 1 0.692698 0.781621 0.0157846
267 1 0.712819 0.898994 0.466225
19 1 0.894355 0.848174 0.26452
257 1 0.879326 0.918748 0.443503
7 1 0.761885 0.895263 0.310946
23 1 0.823808 0.77912 0.436449
63 1 0.895766 0.994256 0.307325
180 1 0.952721 0.857121 0.568973
235 1 0.963987 0.938137 0.704519
329 2 0.951036 0.976876 0.527371
236 1 0.807791 0.892037 0.595226
233 1 0.882712 0.808124 0.735586
67 1 0.717672 0.791913 0.675921
306 2 0.746974 0.767819 0.536049
45 1 0.783038 0.921674 0.749
54 1 0.77935 0.918154 0.957162
234 1 0.887383 0.90915 0.85547
105 1 0.869367 0.76196 0.90571
237 1 0.733979 0.80832 0.835691
228 1 0.987158 0.890722 0.977892
ITEM: TIMESTEP
50000
ITEM: NUMBER OF ATOMS
360
ITEM: BOX BOUNDS pp pp pp
0.0000000000000000e+00 6.6943295008216896e+00
0.0000000000000000e+00 6.6943295008216896e+00
0.0000000000000000e+00 6.6943295008216896e+00
ITEM: ATOMS id type xs ys zs
181 1 0.243494 0.159151 0.191024
258 1 0.061752 0.105414 0.176653
127 1 0.173219 0.091154 0.0655323
265 1 0.26376 0.217591 0.0109488
99 1 0.00195097 0.0305164 0.0527687
171 1 0.323234 0.0779736 0.056644
309 2 0.259889 0.0071605 0.139752
1 1 0.235787 0.0971739 0.343745
27 1 0.080153 0.0276858 0.309466
35 1 0.085507 0.115824 0.444008
208 1 0.107391 0.175453 0.314153
100 1 0.200987 0.207563 0.457322
310 2 0.308428 0.0993913 0.465296
297 2 0.0582305 0.245873 0.4539
253 1 0.0519572 0.0231948 0.561073
348 2 0.184662 0.226439 0.682188
213 1 0.117099 0.155413 0.613919
3 1 0.209361 0.0473575 0.551418
244 1 0.28089 0.177746 0.60172
266 1 0.223618 0.0881456 0.70941
201 1 0.011975 0.223705 0.720796
224 1 0.158372 0.201742 0.803242
256 1 0.0567339 0.118361 0.945815
128 1 0.293319 0.131669 0.884205
354 2 0.178574 0.171528 0.930073
223 1 0.160095 0.0330396 0.858117
324 2 0.234923 0.0296457 0.98106
342 2 0.0768829 0.117906 0.752188
255 1 0.306748 0.222377 0.75025
274 1 0.322654 0.356645 0.0267578
138 1 0.259605 0.328606 0.153902
57 1 0.0483235 0.382581 0.103652
96 1 0.119258 0.250551 0.155578
315 2 0.300491 0.497311 0.0132177
189 1 0.163727 0.337783 0.00236947
52 1 0.124443 0.380369 0.239262
245 1 0.181765 0.477602 0.0748004
300 2 0.208434 0.460873 0.193512
167 1 0.32441 0.469761 0.135953
13 1 0.0519477 0.252861 0.0284875
282 1 0.0250777 0.487925 0.31567
28 1 0.0879137 0.473325 0.475267
295 2 0.217346 0.440578 0.42284
194 1 0.137395 0.338157 0.39398
21 1 0.276657 0.41902 0.30757
5 1 0.300134 0.329074 0.423508
94 1 0.229293 0.273759 0.295542
143 1 0.0662742 0.299736 0.594628
142 1 0.237273 0.332273 0.595073
62 1 0.126533 0.44628 0.638302
332 2 0.151851 0.384762 0.524244
61 1 0.17857 0.348535 0.734791
29 1 0.240953 0.485183 0.550234
69 1 0.272541 0.479249 0.723246
84 1 0.0208302 0.368676 0.736536
17 1 0.105523 0.485383 0.805365
87 1 0.258926 0.304672 0.871538
10 1 0.227668 0.449309 0.921555
277 1 0.0907538 0.325011 0.868045
114 1 0.0620383 0.478927 0.961399
115 1 0.0734526 0.722779 0.213425
281 1 0.263677 0.600374 0.13818
222 1 0.113824 0.56137 0.215328
8 1 0.0867315 0.59379 0.0683031
173 1 0.174367 0.723408 0.0803741
321 2 0.299954 0.707253 0.0590579
347 2 0.186629 0.672115 0.212981
227 1 0.318692 0.73671 0.187318
307 2 0.0287471 0.608865 0.315288
298 2 0.16859 0.577045 0.467404
91 1 0.120633 0.698005 0.366903
148 1 0.293635 0.714655 0.334081
129 1 0.024043 0.605543 0.442384
193 1 0.182781 0.564505 0.351706
78 1 0.251448 0.657008 0.46023
328 2 0.115908 0.696722 0.495693
51 1 0.311411 0.556974 0.270737
80 1 0.136478 0.599345 0.581193
353 2 0.00855754 0.55649 0.569061
231 1 0.108785 0.664399 0.717896
192 1 0.268368 0.607635 0.660538
319 2 0.147757 0.548211 0.709144
135 1 0.0107832 0.530061 0.688479
175 1 0.18634 0.736071 0.581678
355 2 0.330479 0.576088 0.533545
330 2 0.225031 0.699883 0.737401
9 1 0.249375 0.626342 0.969125
187 1 0.139467 0.735807 0.841124
291 2 0.141569 0.575002 0.917197
169 1 0.221748 0.591137 0.819718
172 1 0.323897 0.701531 0.828868
251 1 0.0337187 0.622155 0.846215
318 2 0.0673068 0.676813 0.971318
182 1 0.105537 0.840445 0.12494
238 1 0.000808587 0.937837 0.194458
333 2 0.125623 0.987278 0.115681
168 1 0.185565 0.957371 0.228478
162 1 0.276163 0.88258 0.120046
357 2 0.205363 0.919173 0.349566
180 1 0.315177 0.859707 0.302885
41 1 0.217278 0.814169 0.428954
26 1 0.0480616 0.800284 0.461033
188 1 0.294884 0.9682 0.43951
40 1 0.126029 0.946938 0.438048
82 1 0.0712632 0.862552 0.319759
122 1 0.186841 0.797033 0.252728
276 1 0.0244871 0.823327 0.61106
104 1 0.0784057 0.96855 0.698645
101 1 0.142353 0.816222 0.705344
216 1 0.15256 0.899926 0.575729
134 1 0.238393 0.945452 0.69107
147 1 0.312985 0.793806 0.696115
70 1 0.294742 0.863807 0.543983
349 2 0.0230882 0.90841 0.508058
279 1 0.256462 0.786323 0.968647
262 1 0.0859738 0.794052 0.973748
259 1 0.212031 0.868909 0.862077
85 1 0.306205 0.93132 0.968988
97 1 0.0653486 0.907545 0.839296
314 2 0.0332699 0.969416 0.949044
38 1 0.331377 0.983798 0.806015
65 1 0.141875 0.935901 0.996034
125 1 0.527636 0.21617 0.186346
39 1 0.39163 0.222111 0.11712
75 1 0.462749 0.00180583 0.00767479
269 1 0.571804 0.0779755 0.112723
304 2 0.661308 0.210358 0.16951
352 2 0.445435 0.104097 0.135439
220 1 0.622678 0.212676 0.0420524
98 1 0.500653 0.0267728 0.234756
288 1 0.438034 0.0635104 0.396574
178 1 0.501487 0.215386 0.327821
230 1 0.56046 0.119446 0.472307
111 1 0.348886 0.194098 0.389298
206 1 0.618534 0.130141 0.267596
164 1 0.394333 0.141943 0.252412
33 1 0.334943 0.00433652 0.277882
190 1 0.51244 0.01131 0.621043
107 1 0.528549 0.207298 0.604449
197 1 0.640552 0.138004 0.673677
214 1 0.395105 0.118181 0.68542
287 1 0.419238 0.12011 0.539509
303 2 0.337952 0.232223 0.512493
163 1 0.561472 0.0444304 0.782967
106 1 0.555961 0.207549 0.902413
260 1 0.432904 0.105202 0.834726
155 1 0.591075 0.0771956 0.962794
144 1 0.518195 0.187932 0.751645
199 1 0.439716 0.151682 0.978976
271 1 0.496799 0.301868 0.00687686
215 1 0.572194 0.4565 0.0738339
156 1 0.458352 0.375401 0.138078
202 1 0.639625 0.34433 0.148531
305 2 0.41619 0.460621 0.232404
273 1 0.440501 0.453429 0.00138057
15 1 0.448112 0.270614 0.482276
146 1 0.541389 0.367608 0.278748
76 1 0.441509 0.41016 0.368823
86 1 0.379962 0.314207 0.260273
241 1 0.610338 0.455433 0.378578
179 1 0.604168 0.287085 0.425335
79 1 0.395627 0.407514 0.531869
313 2 0.628545 0.2734 0.689056
344 2 0.419092 0.409501 0.683051
110 1 0.529649 0.35324 0.667319
283 1 0.561238 0.392164 0.520832
296 2 0.624058 0.261659 0.544549
47 1 0.398457 0.284805 0.641065
317 2 0.466776 0.297058 0.752483
20 1 0.361184 0.370428 0.773796
89 1 0.635583 0.359166 0.970482
157 1 0.606532 0.429529 0.769801
210 1 0.510841 0.365218 0.874504
322 2 0.366761 0.411366 0.90313
203 1 0.404931 0.264793 0.890466
68 1 0.654085 0.297524 0.819627
53 1 0.468422 0.496638 0.786805
141 1 0.433668 0.621423 0.179605
358 2 0.459098 0.697033 0.0821931
239 1 0.55406 0.605635 0.0441722
71 1 0.383609 0.586867 0.0335542
23 1 0.584652 0.662473 0.186121
108 1 0.543887 0.5097 0.200772
331 2 0.45496 0.524572 0.10599
198 1 0.45758 0.573327 0.318611
177 1 0.606836 0.591393 0.459629
351 2 0.399907 0.693243 0.282024
174 1 0.40074 0.66445 0.44133
226 1 0.337857 0.508272 0.414723
268 1 0.514771 0.709599 0.3444
249 1 0.653231 0.582113 0.295743
204 1 0.663861 0.707166 0.37022
118 1 0.456966 0.533829 0.490188
280 1 0.622296 0.726106 0.537363
248 1 0.563607 0.509 0.625096
337 2 0.492292 0.588692 0.6911
109 1 0.393072 0.526199 0.638609
261 1 0.493868 0.649953 0.572752
113 1 0.41303 0.685371 0.691165
299 2 0.633925 0.610447 0.634089
55 1 0.546811 0.733131 0.700543
284 1 0.336402 0.717797 0.563308
185 1 0.359177 0.554477 0.885709
360 2 0.657232 0.717094 0.804726
165 1 0.621074 0.672259 0.915783
338 2 0.483055 0.589047 0.93552
74 1 0.478034 0.652142 0.827287
154 1 0.41748 0.710284 0.959347
112 1 0.594605 0.508484 0.903173
340 2 0.358038 0.587801 0.761228
139 1 0.606522 0.593919 0.771015
103 1 0.529491 0.902951 0.112364
316 2 0.382864 0.844685 0.184832
159 1 0.477458 0.76819 0.194266
229 1 0.395218 0.971182 0.138082
250 1 0.406352 0.820732 0.0561825
7 1 0.641542 0.97745 0.202294
4 1 0.563171 0.769958 0.0347579
37 1 0.47128 0.889012 0.295188
161 1 0.405821 0.809042 0.431828
58 1 0.569366 0.836939 0.416933
95 1 0.575208 0.992298 0.361036
294 2 0.401733 0.946334 0.37522
153 1 0.4685 0.933675 0.474796
267 1 0.62472 0.831614 0.261394
346 2 0.507578 0.758847 0.4938
32 1 0.611778 0.971192 0.513805
219 1 0.40952 0.911661 0.7092
195 1 0.449081 0.819239 0.581606
102 1 0.607527 0.856139 0.602779
212 1 0.350218 0.990414 0.569837
72 1 0.661253 0.984816 0.67746
93 1 0.55917 0.883674 0.743662
339 2 0.479619 0.855085 0.971993
311 2 0.439634 0.796444 0.761203
88 1 0.48831 0.94053 0.867999
132 1 0.363486 0.844087 0.851268
120 1 0.596057 0.910794 0.974602
152 1 0.522467 0.791996 0.875939
263 1 0.919033 0.190739 0.203348
329 2 0.970474 0.16028 0.0852294
350 2 0.941173 0.0665921 0.171832
63 1 0.731113 0.105387 0.156823
275 1 0.862743 0.0627843 0.0582826
228 1 0.824287 0.00089144 0.216021
186 1 0.930963 0.192944 0.392606
36 1 0.789897 0.169181 0.278225
325 2 0.668423 0.0684673 0.423714
243 1 0.717082 0.184791 0.41056
73 1 0.792755 0.0489144 0.391521
124 1 0.924105 0.0725999 0.315162
345 2 0.71652 0.0372317 0.279706
130 1 0.702937 0.108412 0.546524
270 1 0.772079 0.239987 0.536484
286 1 0.953938 0.0622679 0.670801
359 2 0.858605 0.163305 0.626003
46 1 0.815165 0.0408534 0.625024
272 1 0.994341 0.176117 0.55221
323 2 0.744397 0.0890281 0.744872
225 1 0.895165 0.076276 0.507785
183 1 0.864053 0.0821312 0.896646
217 1 0.67992 0.13474 0.844202
301 2 0.706155 0.239762 0.925789
44 1 0.961297 0.215441 0.863198
264 1 0.80353 0.233066 0.862345
50 1 0.871674 0.142826 0.76234
22 1 0.736097 0.135694 0.991244
211 1 0.894055 0.205167 0.998786
14 1 0.992768 0.0535455 0.81714
356 2 0.78564 0.0150531 0.968289
218 1 0.906161 0.313834 0.105655
205 1 0.935431 0.442872 0.203056
149 1 0.799619 0.437723 0.113997
196 1 0.814927 0.318299 0.2288
221 1 0.756876 0.261539 0.0996655
150 1 0.952169 0.498646 0.0707456
119 1 0.809792 0.300044 0.390753
25 1 0.993722 0.321011 0.291786
246 1 0.982064 0.360446 0.439746
11 1 0.702302 0.427323 0.251659
48 1 0.889223 0.436777 0.350818
308 2 0.695141 0.365528 0.377494
116 1 0.677505 0.282195 0.284914
341 2 0.90993 0.255303 0.495636
336 2 0.962986 0.485232 0.431191
92 1 0.702801 0.369382 0.653749
145 1 0.857053 0.426226 0.66908
252 1 0.909142 0.283043 0.616411
16 1 0.769711 0.252591 0.702816
209 1 0.848473 0.388409 0.501076
160 1 0.977161 0.426679 0.574971
170 1 0.700401 0.389334 0.504358
34 1 0.726335 0.427274 0.880957
83 1 0.876269 0.35807 0.800666
66 1 0.948897 0.354135 0.953168
77 1 0.954397 0.491955 0.822343
278 1 0.800173 0.337325 0.976548
289 2 0.831657 0.479386 0.80625
31 1 0.678602 0.672495 0.0538902
49 1 0.740348 0.693906 0.198031
105 1 0.968503 0.613526 0.204115
158 1 0.824748 0.598604 0.10404
191 1 0.685916 0.549121 0.155445
24 1 0.8092 0.5465 0.247087
54 1 0.817669 0.749367 0.0566385
166 1 0.999403 0.721605 0.0852912
247 1 0.716145 0.518233 0.00892708
236 1 0.76547 0.651553 0.468429
117 1 0.89371 0.587253 0.367422
327 2 0.869601 0.659501 0.26448
326 2 0.763885 0.615153 0.338487
207 1 0.911658 0.719306 0.467626
19 1 0.965712 0.740568 0.316886
59 1 0.768611 0.507202 0.425218
292 2 0.97076 0.651467 0.726352
232 1 0.860282 0.594295 0.687752
343 2 0.867202 0.678081 0.590977
56 1 0.744605 0.665431 0.628451
176 1 0.894265 0.574998 0.531343
131 1 0.728203 0.505681 0.734942
140 1 0.71513 0.523349 0.568796
6 1 0.999 0.670675 0.597396
293 2 0.782108 0.69306 0.735625
121 1 0.880345 0.636018 0.829019
42 1 0.941826 0.639703 0.969036
133 1 0.779256 0.722072 0.906023
30 1 0.73573 0.58584 0.8706
306 2 0.811895 0.626149 0.978924
18 1 0.863299 0.502328 0.945137
334 2 0.980428 0.824022 0.22867
60 1 0.88687 0.756272 0.18958
254 1 0.778913 0.853066 0.235596
302 2 0.766056 0.927856 0.132877
285 1 0.890909 0.899137 0.100818
151 1 0.668693 0.844066 0.114735
335 2 0.978 0.865551 0.0214852
123 1 0.686368 0.997091 0.0554665
240 1 0.898596 0.902292 0.302685
2 1 0.729353 0.905669 0.366912
126 1 0.903405 0.864036 0.452685
12 1 0.984764 0.982263 0.416181
320 2 0.679346 0.850185 0.465543
257 1 0.805482 0.753016 0.347568
81 1 0.766721 0.96033 0.510311
64 1 0.91599 0.928989 0.586422
43 1 0.791485 0.895622 0.661765
45 1 0.784921 0.790645 0.54724
184 1 0.702734 0.805291 0.726402
235 1 0.881084 0.767984 0.687035
137 1 0.953957 0.895114 0.745783
90 1 0.823243 0.839316 0.813824
234 1 0.922676 0.936702 0.929014
237 1 0.769622 0.870638 0.98423
136 1 0.931725 0.779557 0.946175
67 1 0.690722 0.991081 0.896927
233 1 0.835231 0.992328 0.773127
200 1 0.671767 0.829814 0.877016
242 1 0.998889 0.759748 0.786215
312 2 0.681808 0.777899 0.996093
290 2 0.68601 0.921057 0.783469
ITEM: TIMESTEP
100000
ITEM: NUMBER OF ATOMS
360
ITEM: BOX BOUNDS pp pp pp
0.0000000000000000e+00 6.6943295008216896e+00
0.0000000000000000e+00 6.6943295008216896e+00
0.0000000000000000e+00 6.6943295008216896e+00
ITEM: ATOMS id type xs ys zs
87 1 0.199431 0.140548 0.0731448
349 2 0.10095 0.0652032 0.105101
241 1 0.272553 0.164618 0.20169
97 1 0.0454322 0.173605 0.0556631
181 1 0.308575 0.247792 0.0857003
94 1 0.0103298 0.229665 0.19049
294 2 0.271804 0.0189714 0.0491498
238 1 0.11465 0.102802 0.224258
263 1 -0.00263436 0.0162034 0.00930064
258 1 0.153936 0.00864459 0.0043329
1 1 0.13903 0.213028 0.32646
164 1 0.245912 0.0664723 0.329458
27 1 0.116431 0.0872717 0.433912
142 1 0.26406 0.253632 0.428899
225 1 -0.00268337 0.132232 0.318259
64 1 0.249613 0.125403 0.511461
143 1 0.229729 0.220692 0.62314
201 1 0.105921 0.13248 0.598104
342 2 0.0846927 0.0225997 0.696755
213 1 0.229818 0.0716511 0.654791
260 1 0.154354 0.162276 0.749162
223 1 0.321547 0.165194 0.733511
128 1 0.311912 0.137057 0.971914
104 1 0.251916 0.0722194 0.835616
127 1 0.119594 0.111367 0.910691
229 1 0.259456 0.228447 0.856336
256 1 0.0102949 0.0740269 0.782009
245 1 0.0409477 0.237536 0.861593
171 1 0.261369 0.32239 0.231867
273 1 0.241749 0.38563 0.05274
295 2 0.29855 0.467173 0.145715
282 1 0.13752 0.279538 0.126859
114 1 0.091616 0.483826 0.0375896
76 1 0.141354 0.440477 0.186005
298 2 0.098369 0.314584 0.237396
186 1 0.054596 0.396314 0.462953
12 1 0.0116381 0.273104 0.385853
194 1 0.157929 0.364178 0.344307
319 2 0.199509 0.483965 0.40003
35 1 0.227064 0.388226 0.491158
304 2 0.291017 0.365662 0.356101
167 1 0.283021 0.467184 0.274251
5 1 0.135011 0.269273 0.500379
79 1 0.247705 0.365162 0.649883
359 2 0.244753 0.264158 0.737162
344 2 0.111954 0.287036 0.646952
189 1 0.096314 0.421443 0.607453
307 2 0.264746 0.474762 0.589371
303 2 0.310583 0.288656 0.542193
59 1 0.00524416 0.293489 0.57132
309 2 0.284748 0.29709 0.97734
44 1 0.128363 0.330711 0.762004
318 2 0.0372632 0.365425 0.863724
231 1 0.0906804 0.498543 0.801128
281 1 0.155654 0.387549 0.92178
355 2 0.210293 0.42334 0.777843
277 1 0.306719 0.428691 0.908799
61 1 0.32288 0.35586 0.782798
105 1 0.170677 0.254403 0.980677
96 1 0.0319763 0.337378 0.992594
91 1 0.0152134 0.536102 0.214475
156 1 0.31202 0.597753 0.205629
187 1 0.0795016 0.633508 0.0974499
173 1 0.202783 0.556525 0.106691
193 1 0.202772 0.730218 0.13644
321 2 0.194357 0.654881 0.0223928
21 1 0.239455 0.619756 0.33987
26 1 0.0997518 0.658169 0.422798
192 1 0.131869 0.661528 0.247013
148 1 0.0763002 0.505202 0.357554
347 2 0.303839 0.704793 0.274387
333 2 0.199266 0.544112 0.237272
174 1 0.242502 0.689624 0.496973
179 1 0.313138 0.546838 0.450131
80 1 0.110735 0.65769 0.598735
284 1 0.177845 0.516933 0.674753
129 1 0.292598 0.601176 0.609698
176 1 0.030642 0.545692 0.658373
134 1 0.204358 0.673271 0.714016
19 1 -0.000613783 0.55323 0.506427
28 1 0.167954 0.554904 0.509089
6 1 0.0612317 0.651364 0.784294
10 1 0.298258 0.682606 0.83187
42 1 0.154788 0.700999 0.901859
109 1 0.289514 0.531728 0.806771
69 1 0.213161 0.54627 0.946712
322 2 0.18052 0.600556 0.835059
169 1 0.0625757 0.589643 0.932075
338 2 0.316324 0.624286 0.949698
115 1 0.0152333 0.767428 0.164639
168 1 0.213997 0.880164 0.0667344
188 1 0.0716219 0.932156 0.119996
41 1 0.229812 0.977514 0.194564
262 1 0.0967729 0.777611 0.0256899
166 1 0.139772 0.859598 0.236558
70 1 0.192065 0.761304 0.352308
82 1 0.0559585 0.781248 0.31741
227 1 0.176718 0.932916 0.365888
343 2 0.0443859 0.916005 0.431873
182 1 0.0349726 0.97592 0.302203
161 1 0.296274 0.862049 0.484276
162 1 0.297287 0.839881 0.292343
78 1 0.102448 0.80946 0.47539
219 1 0.152329 0.921362 0.656571
40 1 0.0414332 1.00264 0.576272
45 1 0.0358288 0.783632 0.664217
147 1 0.200371 0.796097 0.597388
224 1 0.294221 0.927979 0.628284
216 1 0.204322 0.985963 0.519947
55 1 0.306108 0.793907 0.710428
259 1 0.28171 0.932358 0.793203
132 1 0.177431 0.865502 0.914576
279 1 -0.00192496 0.904275 0.882813
65 1 0.303943 0.965432 0.940509
101 1 0.135057 0.970027 0.809438
251 1 0.133609 0.811123 0.78
185 1 0.27798 0.749896 1.00062
136 1 0.00223499 0.762823 0.874394
357 2 0.080247 0.90973 0.982514
199 1 0.550836 0.191672 0.233901
88 1 0.485985 0.0296426 0.0585664
141 1 0.431133 0.236523 0.16163
316 2 0.484567 0.0730527 0.193942
345 2 0.535202 0.158314 0.105708
98 1 0.362627 0.0775736 0.119987
36 1 0.638456 0.0736544 0.129155
203 1 0.448881 0.17084 0.00948064
269 1 0.646515 0.228866 0.119378
352 2 0.602353 0.0678609 0.260393
3 1 0.38545 0.12501 0.418248
119 1 0.512334 0.171379 0.374015
153 1 0.636666 0.0334327 0.384153
348 2 0.504856 0.00728011 0.476445
103 1 0.402713 0.130558 0.263681
195 1 0.506316 0.0061298 0.33853
100 1 0.524449 0.136023 0.523165
287 1 0.532728 0.0295344 0.625451
244 1 0.396062 0.0197581 0.70254
47 1 0.624556 0.137916 0.673302
288 1 0.384759 0.143831 0.590091
112 1 0.488773 0.192417 0.720348
253 1 0.381714 0.0182774 0.519041
32 1 0.662846 0.08044 0.529392
16 1 0.556947 0.0946768 0.806911
89 1 0.600408 0.17437 0.978685
317 2 0.507394 0.092179 0.927286
255 1 0.423033 0.142 0.855823
339 2 0.395575 0.0409355 0.964854
271 1 0.626741 0.0279336 0.943222
305 2 0.509991 0.439267 0.0905279
39 1 0.589331 0.341023 0.195986
265 1 0.404833 0.365357 0.0579971
215 1 0.413311 0.388305 0.20861
202 1 0.647666 0.392784 0.0595056
278 1 0.523503 0.287115 0.0589363
11 1 0.523382 0.401421 0.463208
116 1 0.593819 0.257726 0.458694
249 1 0.390165 0.426321 0.374839
20 1 0.43344 0.260954 0.492841
178 1 0.385554 0.272312 0.331915
15 1 0.521023 0.319641 0.334278
196 1 0.526569 0.465846 0.29064
351 2 0.655319 0.504564 0.288343
247 1 0.495416 0.400662 0.720061
248 1 0.642232 0.445196 0.704602
283 1 0.385112 0.293455 0.657286
107 1 0.54808 0.257062 0.598292
299 2 0.50932 0.386248 0.595426
29 1 0.381183 0.429493 0.536595
266 1 0.613035 0.289952 0.731473
144 1 0.639652 0.37806 0.543143
274 1 0.363316 0.470944 0.68002
13 1 0.447193 0.441529 0.859649
110 1 0.587589 0.394875 0.837832
324 2 0.53372 0.359357 0.951076