ITEM: TIMESTEP
0
ITEM: NUMBER OF ATOMS
360
ITEM: BOX BOUNDS pp pp pp
0.0000000000000000e+00 6.6943295008216896e+00
0.0000000000000000e+00 6.6943295008216896e+00
0.0000000000000000e+00 6.6943295008216896e+00
ITEM: ATOMS id type xs ys zs
264 1 0.0297785 0.146772 0.047069
163 1 0.161058 0.110849 0.16562
89 1 0.0127956 0.120309 0.203001
315 2 0.268362 0.142539 0.0853804
252 1 0.295269 0.213393 0.189201
238 1 0.227625 0.0197833 0.0449298
241 1 0.0791648 0.00133281 0.076564
351 2 0.13935 0.238608 0.202108
196 1 0.164506 0.236248 0.0681742
64 1 0.330573 0.0356809 0.175031
224 1 0.214601 0.200255 0.316249
322 2 0.0962723 0.215399 0.426323
26 1 0.0903895 0.0973637 0.33369
102 1 0.176549 0.117369 0.457184
278 1 0.226556 0.0270801 0.278324
218 1 0.0258357 0.124188 0.488891
61 1 0.137992 0.132362 0.611771
359 2 0.243152 0.188568 0.562299
232 1 0.276068 0.171746 0.686576
116 1 0.0168835 0.0721758 0.692851
134 1 0.273187 0.0243796 0.599061
33 1 0.056479 0.227609 0.722643
272 1 0.263734 0.212438 0.831523
247 1 0.185042 0.132876 0.967792
203 1 0.151441 0.11915 0.773644
286 1 0.0585317 0.0627479 0.914564
201 1 0.278801 0.0414931 0.769722
225 1 0.104378 0.230951 0.879709
320 2 0.0242175 0.144953 0.813468
129 1 0.329498 0.0987355 0.916622
326 2 0.0486448 0.00011133 0.800975
122 1 0.302429 0.236865 0.999756
199 1 0.267678 0.33716 0.106907
119 1 0.126333 0.364435 0.164623
162 1 0.0395493 0.312914 0.0111767
228 1 0.113974 0.479547 0.0305694
250 1 0.0137944 0.268599 0.158169
181 1 0.222743 0.488547 0.138023
287 1 0.294247 0.461039 0.00437146
62 1 0.21545 0.277324 0.45825
41 1 0.0789257 0.439899 0.431405
336 2 0.187619 0.375945 0.391993
144 1 0.317396 0.382477 0.406057
253 1 0.0897839 0.322577 0.312972
222 1 0.249979 0.347388 0.262232
23 1 0.0132851 0.450998 0.279099
19 1 0.322341 0.486109 0.267825
194 1 0.162581 0.472042 0.280819
356 2 0.177137 0.405007 0.677703
208 1 0.187786 0.423482 0.535172
230 1 0.282128 0.339421 0.728596
51 1 0.0384588 0.379654 0.631818
273 1 0.171783 0.278971 0.614323
31 1 0.321039 0.314884 0.57483
213 1 0.0455949 0.293191 0.508192
106 1 0.123177 0.363081 0.78552
174 1 0.251974 0.463413 0.81928
328 2 0.0683391 0.373988 0.901437
153 1 0.195373 0.348957 0.957249
198 1 0.33152 0.343565 0.896224
184 1 0.0724441 0.545536 0.167657
56 1 0.1065 0.7249 0.237003
65 1 0.137776 0.671631 0.0772406
22 1 0.316013 0.625251 0.0716306
97 1 0.225869 0.622356 0.219769
310 2 0.234622 0.749032 0.163484
339 2 0.0386161 0.739748 0.0210459
47 1 0.203756 0.700351 0.448066
338 2 0.209078 0.73794 0.329699
306 2 0.126258 0.582654 0.462815
283 1 0.119844 0.606714 0.34209
6 1 0.234746 0.507924 0.412802
279 1 0.0259713 0.665599 0.465463
182 1 0.310036 0.636791 0.355673
325 2 0.00945996 0.582668 0.269553
357 2 0.2991 0.609174 0.484057
160 1 0.204883 0.576051 0.563676
308 2 0.213459 0.637358 0.688967
104 1 0.0296742 0.535855 0.555616
110 1 0.0960796 0.661989 0.623612
109 1 0.240514 0.736949 0.603834
150 1 0.132886 0.519622 0.693611
330 2 0.007598 0.566586 0.69041
240 1 0.291315 0.509383 0.66766
214 1 0.142787 0.719221 0.924034
187 1 0.208621 0.618593 0.816088
288 1 0.0478369 0.636952 0.783145
135 1 0.320765 0.681053 0.914377
85 1 0.204384 0.583009 0.970217
15 1 0.0141645 0.616801 0.958885
193 1 0.321913 0.70489 0.753309
81 1 0.10453 0.504897 0.859812
274 1 0.281217 0.89057 0.112558
221 1 0.123725 0.822928 0.114446
323 2 0.17103 0.950331 0.152275
84 1 0.244461 0.769302 0.0212192
245 1 0.00223463 0.839063 0.204742
52 1 0.0744978 0.978248 0.230465
115 1 0.198826 0.858542 0.247732
204 1 0.00301876 0.878781 0.0356574
281 1 0.144137 0.946134 0.388693
206 1 0.289705 0.977755 0.420653
171 1 0.0875297 0.810012 0.355721
251 1 0.272836 0.831491 0.379995
10 1 0.0443345 0.854964 0.492634
236 1 0.194771 0.855009 0.507479
60 1 0.105652 0.850915 0.636239
112 1 0.250878 0.868756 0.716399
242 1 0.148956 0.99943 0.67981
305 2 0.122416 0.758711 0.526168
96 1 0.116389 0.98784 0.529588
202 1 0.156766 0.759924 0.74879
38 1 0.249263 0.834463 0.873285
164 1 0.122972 0.896303 0.808681
268 1 0.021803 0.787309 0.864799
54 1 0.144339 0.887268 0.977317
329 2 0.282769 0.898613 0.977306
178 1 0.208621 0.990364 0.891326
30 1 0.506891 0.0458074 0.109192
67 1 0.611183 0.118433 0.230671
180 1 0.469122 0.195305 0.210081
229 1 0.663846 0.154282 0.0738015
277 1 0.531394 0.237622 0.064902
256 1 0.397067 0.140229 0.071477
151 1 0.449391 0.0320838 0.441926
90 1 0.585561 0.102791 0.383802
349 2 0.661036 0.0262988 0.306517
340 2 0.462179 0.14044 0.386823
53 1 0.475767 0.0308253 0.274012
342 2 0.617613 0.22231 0.33227
24 1 0.339199 0.168121 0.47776
50 1 0.661455 0.229913 0.448264
192 1 0.344859 0.101534 0.331625
155 1 0.408682 0.101708 0.607261
98 1 0.537339 0.032083 0.674293
168 1 0.551259 0.110056 0.536027
137 1 0.520825 0.185525 0.701643
78 1 0.478103 0.243582 0.554489
358 2 0.395816 0.238368 0.650393
131 1 0.637505 0.249894 0.613912
226 1 0.602773 0.202048 0.939823
257 1 0.604092 0.0750417 0.823992
297 2 0.514575 0.198011 0.834266
45 1 0.494507 0.0668919 0.933216
32 1 0.444956 0.214438 0.937889
59 1 0.424041 0.0923751 0.774072
209 1 0.649942 0.217009 0.792096
35 1 0.4242 0.359473 0.0120665
355 2 0.522013 0.362328 0.0914954
101 1 0.542604 0.418628 0.205873
92 1 0.527614 0.480575 0.0464907
260 1 0.393672 0.360685 0.199897
200 1 0.605505 0.27117 0.198926
334 2 0.397052 0.268137 0.104365
69 1 0.38942 0.496476 0.126383
103 1 0.643779 0.397578 0.104027
360 2 0.657668 0.279436 0.0462237
249 1 0.462548 0.399217 0.35711
321 2 0.398478 0.292745 0.456623
4 1 0.569635 0.489064 0.442832
220 1 0.612486 0.370743 0.335881
125 1 0.377429 0.267625 0.333755
352 2 0.502314 0.295159 0.28153
114 1 0.518507 0.254868 0.40243
42 1 0.609561 0.42296 0.606849
197 1 0.483992 0.351529 0.655842
344 2 0.581051 0.319814 0.530355
343 2 0.380867 0.414218 0.636241
284 1 0.539794 0.48448 0.737929
13 1 0.457758 0.396297 0.509791
227 1 0.335601 0.487006 0.528856
86 1 0.546722 0.327342 0.805975
345 2 0.458593 0.333235 0.891586
76 1 0.51081 0.452459 0.890735
294 2 0.38564 0.460813 0.907656
149 1 0.408814 0.417654 0.775544
316 2 0.621348 0.468258 0.958955
80 1 0.579829 0.351678 0.971492
16 1 0.407734 0.252793 0.784656
335 2 0.666369 0.303883 0.882478
211 1 0.624827 0.557927 0.153775
258 1 0.639473 0.6775 0.0720086
165 1 0.48521 0.634576 0.092319
243 1 0.392614 0.616684 0.223143
353 2 0.501344 0.552393 0.188048
296 2 0.486221 0.746468 0.150071
172 1 0.562205 0.668248 0.233925
350 2 0.419973 0.703442 0.00631425
39 1 0.428065 0.595705 0.459668
138 1 0.491274 0.556126 0.319185
266 1 0.581954 0.641113 0.410045
99 1 0.45995 0.721414 0.348
246 1 0.646225 0.520833 0.310808
348 2 0.389511 0.502396 0.379928
212 1 0.37083 0.748184 0.482981
298 2 0.4195 0.52673 0.713502
55 1 0.361526 0.646407 0.605645
1 1 0.630056 0.579593 0.560509
195 1 0.51526 0.679916 0.562006
319 2 0.57873 0.582077 0.673493
154 1 0.472299 0.649573 0.713627
239 1 0.484394 0.527312 0.598924
28 1 0.656876 0.693191 0.666067
124 1 0.58084 0.599789 0.960327
175 1 0.597761 0.612151 0.800814
139 1 0.36481 0.563983 0.819848
29 1 0.467683 0.691143 0.871776
302 2 0.485559 0.570511 0.859193
17 1 0.412271 0.568334 0.971169
127 1 0.613953 0.79414 0.166857
12 1 0.493998 0.880182 0.106999
91 1 0.596856 0.945234 0.212726
46 1 0.378159 0.987857 0.0361437
188 1 0.627057 0.998295 0.0479091
140 1 0.371316 0.764998 0.108831
303 2 0.424939 0.94993 0.185483
14 1 0.663526 0.83716 0.0339763
169 1 0.524681 0.772837 0.00981754
3 1 0.480843 0.834657 0.247951
2 1 0.547713 0.782907 0.465032
11 1 0.567019 0.941339 0.37018
191 1 0.432035 0.880429 0.407108
40 1 0.628819 0.767029 0.328257
327 2 0.57033 0.986955 0.490913
263 1 0.348875 0.91859 0.280362
18 1 0.338248 0.759968 0.260811
262 1 0.428263 0.793472 0.637005
73 1 0.590396 0.81958 0.604818
189 1 0.395102 0.940233 0.702241
269 1 0.648886 0.926822 0.721804
176 1 0.484004 0.932299 0.566544
289 2 0.510171 0.883476 0.689513
161 1 0.655697 0.981732 0.582711
170 1 0.338723 0.892438 0.540388
318 2 0.497199 0.823764 0.883958
142 1 0.40794 0.822587 0.803781
267 1 0.506181 0.925349 0.96962
111 1 0.381909 0.816988 0.96664
68 1 0.517283 0.932817 0.812787
270 1 0.374718 0.951014 0.888672
248 1 0.653494 0.932068 0.901595
71 1 0.555184 0.790288 0.75986
118 1 0.626972 0.765909 0.887342
152 1 0.87425 0.193358 0.0698893
75 1 0.793209 0.0444649 0.0822196
337 2 0.686301 0.0452422 0.151378
254 1 0.883472 0.236665 0.229417
293 2 0.87122 0.111613 0.170488
207 1 0.752939 0.163509 0.19051
87 1 0.781051 0.0207241 0.245255
186 1 0.906345 0.0837496 0.312116
210 1 0.737398 0.140319 0.344905
57 1 0.709385 0.0243623 0.437148
158 1 0.863508 0.0981304 0.468814
290 2 0.927493 0.212411 0.477573
48 1 0.98119 0.22649 0.355955
105 1 0.739808 0.145133 0.54694
215 1 0.688057 0.0832412 0.689738
231 1 0.848281 0.0878886 0.653458
94 1 0.94983 0.202509 0.609807
156 1 0.773608 0.233384 0.685197
282 1 0.962766 0.00982461 0.563571
58 1 0.94358 0.181132 0.916728
173 1 0.918861 0.0452345 0.81696
130 1 0.787213 0.130735 0.799878
304 2 0.824833 0.119764 0.923184
37 1 0.708924 0.0827891 0.936425
347 2 0.715238 0.00955066 0.810743
205 1 0.760023 0.22894 0.962375
145 1 0.9172 0.0394509 0.989385
8 1 0.911813 0.190799 0.767915
234 1 0.832588 0.449809 0.0691445
5 1 0.969501 0.417608 0.116667
333 2 0.907016 0.313669 0.102304
261 1 0.77382 0.303894 0.120231
82 1 0.86625 0.39507 0.235472
307 2 0.67742 0.401488 0.230968
143 1 0.752862 0.497398 0.197262
66 1 0.847192 0.471613 0.493963
43 1 0.690512 0.376373 0.476234
148 1 0.932239 0.377339 0.392267
244 1 0.786104 0.430232 0.35796
120 1 0.743725 0.298551 0.278439
346 2 0.887595 0.491036 0.307925
354 2 0.978261 0.335415 0.266717
117 1 0.811863 0.259798 0.420537
166 1 0.893078 0.331211 0.698005
276 1 0.761269 0.389579 0.614563
341 2 0.749884 0.274567 0.542211
133 1 0.906878 0.469046 0.630417
88 1 0.889045 0.322533 0.539567
331 2 0.709862 0.486232 0.547806
299 2 0.978892 0.424133 0.512824
44 1 0.67216 0.37532 0.742244
34 1 0.974793 0.323741 0.834354
159 1 0.744732 0.394549 0.95305
332 2 0.900326 0.433076 0.85185
7 1 0.976793 0.442478 0.949342
265 1 0.792542 0.313685 0.83528
93 1 0.817029 0.46981 0.770038
167 1 0.985219 0.465977 0.764104
108 1 0.882628 0.333005 0.97021
179 1 0.690535 0.490115 0.839639
285 1 0.879648 0.605856 0.04701
70 1 0.916495 0.554898 0.182775
295 2 0.754244 0.612207 0.114952
136 1 0.864236 0.710503 0.210713
20 1 0.71217 0.525507 0.0290659
123 1 0.713381 0.675093 0.214167
177 1 0.991105 0.679938 0.12866
301 2 0.987777 0.517288 0.0477465
233 1 0.786654 0.747919 0.0746488
49 1 0.821145 0.593034 0.310835
36 1 0.858382 0.663589 0.441064
121 1 0.957376 0.538428 0.39861
237 1 0.724151 0.555141 0.444864
113 1 0.977349 0.69134 0.326543
300 2 0.713463 0.647559 0.351502
21 1 0.69961 0.716629 0.499937
280 1 0.79924 0.586185 0.585506
309 2 0.816154 0.707167 0.558886
324 2 0.912703 0.574195 0.516433
157 1 0.940554 0.671155 0.592328
271 1 0.893313 0.59214 0.72788
216 1 0.696688 0.519134 0.686936
100 1 0.826113 0.734819 0.686689
27 1 0.732142 0.661008 0.954959
292 2 0.970092 0.561788 0.856729
275 1 0.901029 0.689243 0.848231
183 1 0.756921 0.638402 0.795641
63 1 0.846002 0.548331 0.913523
147 1 0.936479 0.997685 0.15376
190 1 0.728298 0.916729 0.141562
313 2 0.917389 0.804444 0.107299
128 1 0.85115 0.892198 0.0412751
291 2 0.7459 0.793133 0.202381
126 1 0.848765 0.859924 0.236592
317 2 0.741212 0.94763 0.00552924
77 1 0.712743 0.893343 0.309932
72 1 0.826621 0.808131 0.487641
25 1 0.676394 0.875737 0.461392
314 2 0.91749 0.952044 0.282102
83 1 0.936906 0.841366 0.371276
235 1 0.836546 0.959047 0.383996
132 1 0.794498 0.753839 0.340712
311 2 0.912133 0.913321 0.477006
9 1 0.989224 0.993065 0.399128
312 2 0.942277 0.764195 0.484803
95 1 0.741695 0.848939 0.620848
223 1 0.926801 0.849546 0.60155
185 1 0.812751 0.951799 0.723309
219 1 0.815427 0.967893 0.54697
146 1 0.989857 0.922258 0.715955
217 1 0.979925 0.761108 0.715829
255 1 0.731921 0.802975 0.777381
74 1 0.771519 0.816493 0.920898
259 1 0.807035 0.971927 0.892686
107 1 0.87982 0.854369 0.81412
141 1 0.912394 0.755935 0.983756
79 1 0.985126 0.930414 0.891591
ITEM: TIMESTEP
10000000
ITEM: NUMBER OF ATOMS
360
ITEM: BOX BOUNDS pp pp pp
0.0000000000000000e+00 6.6943295008216896e+00
0.0000000000000000e+00 6.6943295008216896e+00
0.0000000000000000e+00 6.6943295008216896e+00
ITEM: ATOMS id type xs ys zs
164 1 0.109727 0.0437167 0.162392
54 1 0.193038 0.177397 0.222628
253 1 0.0397949 0.188384 0.184741
278 1 0.243056 0.0986346 0.0981414
145 1 0.102793 0.120115 0.0215488
191 1 0.24903 0.0382397 0.244976
108 1 0.00360721 0.252106 0.0551767
9 1 0.0503923 0.150068 0.403205
224 1 0.193982 0.0925394 0.382027
340 2 0.0671079 0.108917 0.277809
41 1 0.174073 0.243514 0.361702
218 1 0.0844073 0.0078523 0.453081
125 1 0.324345 0.161525 0.309802
106 1 0.326653 0.187583 0.676847
316 2 0.111244 0.0929409 0.736424
232 1 0.180134 0.129414 0.642363
116 1 0.0334986 0.184899 0.602948
149 1 0.315651 0.038516 0.631182
203 1 0.0362472 0.0321699 0.6093
96 1 0.144242 0.248165 0.522983
24 1 0.262891 0.155275 0.509245
290 2 0.136127 0.100944 0.518504
178 1 0.12969 0.0970931 0.868286
129 1 0.230237 0.204703 0.956578
238 1 0.261512 0.0589206 0.936307
334 2 0.295928 0.146992 0.845962
230 1 0.191202 0.212951 0.769374
16 1 0.239773 0.044818 0.764111
133 1 0.0214125 0.182906 0.753388
333 2 0.0810396 0.375182 0.0457291
89 1 0.0367473 0.356749 0.172344
250 1 0.190964 0.388724 0.16743
305 2 0.132128 0.287367 0.239944
181 1 0.319464 0.485456 0.226608
122 1 0.286676 0.267032 0.129623
286 1 0.143182 0.25089 0.0930388
247 1 0.228247 0.363438 0.0117554
82 1 0.12268 0.404085 0.316222
144 1 0.292032 0.30925 0.439213
222 1 0.274856 0.325279 0.278705
194 1 0.275382 0.446757 0.369779
66 1 0.16981 0.40971 0.48503
62 1 0.00918827 0.305251 0.471902
43 1 0.0226889 0.471386 0.474273
121 1 0.0151964 0.275669 0.315474
213 1 0.0630065 0.375253 0.600971
61 1 0.253905 0.30943 0.611649
298 2 0.117963 0.268534 0.665766
273 1 0.18293 0.484674 0.627845
272 1 0.202811 0.374597 0.74205
240 1 0.332595 0.452924 0.680883
55 1 0.332506 0.44734 0.531244
174 1 0.101522 0.39353 0.911906
328 2 0.201031 0.299814 0.86447
287 1 0.301633 0.401284 0.867777
8 1 0.0584439 0.334587 0.767374
51 1 0.0980728 0.491638 0.770802
239 1 0.32809 0.26474 0.820729
153 1 0.0884792 0.243283 0.906104
135 1 0.245781 0.542997 0.0884474
243 1 0.0298053 0.626645 0.138882
23 1 0.140338 0.531782 0.218612
40 1 0.207275 0.689365 0.15998
22 1 0.158675 0.671993 0.00904053
119 1 0.0929864 0.510843 0.0557916
177 1 0.00810357 0.69866 0.0103305
310 2 0.018809 0.726053 0.231345
282 1 0.113992 0.65514 0.290334
279 1 0.195829 0.708167 0.400165
49 1 0.149227 0.537583 0.397913
171 1 0.26315 0.606369 0.296228
237 1 0.0297514 0.632255 0.454284
60 1 0.321893 0.579185 0.439198
244 1 0.014743 0.518577 0.314123
160 1 0.169165 0.629014 0.534136
69 1 0.296183 0.702458 0.728679
275 1 0.12957 0.633955 0.736701
187 1 0.329086 0.587564 0.595173
157 1 0.0291784 0.52791 0.617562
6 1 0.306795 0.722685 0.521829
268 1 0.0323536 0.681576 0.613043
312 2 0.22703 0.517192 0.50117
184 1 0.0558515 0.729386 0.833067
34 1 0.0447177 0.546013 0.91327
288 1 0.226891 0.680384 0.87292
85 1 0.200578 0.512177 0.916534
208 1 0.260123 0.561659 0.769912
214 1 0.318561 0.665541 0.995888
329 2 0.0913471 0.918733 0.192434
70 1 0.0894595 0.788484 0.116265
163 1 0.22041 0.901781 0.173454
241 1 0.16923 0.968883 0.0357417
84 1 0.228482 0.806071 0.0430632
79 1 0.0267012 0.924774 0.0816538
344 2 0.0384588 0.894856 0.379225
192 1 0.171828 0.874586 0.404358
221 1 0.269262 0.792503 0.269932
355 2 0.246244 0.92666 0.31751
102 1 0.115493 0.980442 0.308372
263 1 0.112843 0.821511 0.265865
115 1 0.0204524 0.758661 0.366253
212 1 0.323734 0.861353 0.423078
113 1 0.0939026 0.768701 0.498489
134 1 0.23314 0.997004 0.499616
359 2 0.00140541 0.916849 0.628553
341 2 0.233002 0.850819 0.521087
206 1 0.1236 0.900992 0.565381
52 1 0.245654 0.903088 0.671175
139 1 0.0538945 0.812868 0.683259
236 1 0.0974715 0.958178 0.730325
104 1 0.187664 0.765725 0.630832
354 2 0.187492 1.00749 0.619998
332 2 0.311108 0.799994 0.639743
18 1 0.0984187 0.822669 0.964237
302 2 0.0588576 0.856013 0.818295
68 1 0.173317 0.944901 0.877377
311 2 0.214654 0.810155 0.913669
204 1 0.186349 0.804535 0.784742
338 2 0.277071 0.894204 0.805779
38 1 0.0314022 0.971616 0.931937
274 1 0.309246 0.904903 0.953652
180 1 0.388537 0.0830375 0.187799
277 1 0.530479 0.142603 0.116587
256 1 0.381478 0.159263 0.0516612
67 1 0.623558 0.0984899 0.236937
229 1 0.6433 0.00320404 0.109294
114 1 0.49778 0.18052 0.267026
252 1 0.413927 0.131774 0.448594
95 1 0.591002 0.114669 0.38597
313 2 0.577434 0.241959 0.369351
26 1 0.332199 0.00758044 0.376037
90 1 0.484242 0.0206453 0.292176
327 2 0.539037 0.0873357 0.695382
269 1 0.600114 0.054549 0.54461
219 1 0.458429 0.0986746 0.59713
13 1 0.540228 0.218819 0.504688
168 1 0.63849 0.167842 0.646129
155 1 0.487507 0.23964 0.690801
351 2 0.346532 0.0457881 0.508485
137 1 0.576974 0.168562 0.805338
226 1 0.564756 0.10254 0.966611
59 1 0.419928 0.158132 0.901844
46 1 0.434423 0.0193125 0.964528
267 1 0.533683 0.0186538 0.807355
297 2 0.489073 0.223462 0.990383
201 1 0.419465 0.104995 0.757713
294 2 0.463616 0.448477 0.0463822
35 1 0.476352 0.319777 0.0749259
92 1 0.611107 0.382528 0.142427
101 1 0.477173 0.450824 0.200571
260 1 0.413977 0.306999 0.217041
307 2 0.538208 0.275026 0.171412
196 1 0.353479 0.405665 0.100623
205 1 0.607998 0.252401 0.0356715
200 1 0.654003 0.247392 0.217277
42 1 0.54914 0.368376 0.447069
19 1 0.41413 0.418773 0.347993
352 2 0.420724 0.37658 0.462344
220 1 0.547052 0.336183 0.289431
138 1 0.560278 0.484445 0.330965
325 2 0.659605 0.401341 0.274426
161 1 0.444905 0.263368 0.390039
39 1 0.460871 0.499745 0.479293
93 1 0.616409 0.314883 0.594696
249 1 0.578933 0.466618 0.68667
78 1 0.463205 0.376914 0.592711
246 1 0.6333 0.469037 0.538867
330 2 0.37216 0.300971 0.67055
227 1 0.395665 0.246733 0.552679
197 1 0.619236 0.330204 0.746314
32 1 0.360514 0.290833 0.971883
353 2 0.605343 0.407821 0.849334
45 1 0.551287 0.28209 0.894262
86 1 0.455456 0.391927 0.92877
31 1 0.448003 0.368282 0.756707
76 1 0.599537 0.420531 0.982854
321 2 0.452512 0.257396 0.815101
358 2 0.366159 0.485324 0.811173
284 1 0.501652 0.497685 0.832751
172 1 0.577051 0.534723 0.0968459
14 1 0.61024 0.670832 0.166681
283 1 0.364593 0.682032 0.215099
140 1 0.464117 0.719798 0.0838602
165 1 0.417612 0.573759 0.115071
296 2 0.522785 0.58012 0.231244
169 1 0.601757 0.705899 0.0153374
182 1 0.513238 0.64893 0.437522
47 1 0.4259 0.572262 0.317777
123 1 0.62513 0.61902 0.336315
170 1 0.365209 0.720358 0.379872
99 1 0.503508 0.718286 0.284474
350 2 0.597674 0.531338 0.438955
154 1 0.42407 0.577257 0.716544
195 1 0.538867 0.588012 0.574644
175 1 0.592289 0.740531 0.581487
109 1 0.428781 0.717693 0.63187
179 1 0.582593 0.61456 0.734416
357 2 0.413645 0.636509 0.516074
360 2 0.436393 0.507225 0.601975
199 1 0.381062 0.622431 0.863186
29 1 0.468209 0.719051 0.784691
324 2 0.512011 0.627713 0.854916
198 1 0.352258 0.505893 0.975836
17 1 0.466445 0.727431 0.936371
20 1 0.62167 0.585783 0.892642
124 1 0.491788 0.571117 0.969983
118 1 0.599535 0.754505 0.851007
188 1 0.612165 0.837275 0.0788975
12 1 0.456106 0.870353 0.0283523
3 1 0.508059 0.836059 0.190159
30 1 0.496149 0.986505 0.135903
91 1 0.609872 0.93247 0.255857
56 1 0.351344 0.818674 0.144371
64 1 0.332429 0.965625 0.0955467
2 1 0.59736 0.790247 0.427137
11 1 0.590352 0.958814 0.410482
127 1 0.472084 0.873932 0.360355
151 1 0.454537 0.980792 0.473984
266 1 0.446257 0.782443 0.493192
343 2 0.406103 0.794285 0.28444
77 1 0.665337 0.777176 0.270206
53 1 0.366395 0.920394 0.247654
176 1 0.570409 0.885377 0.551815
339 2 0.464175 0.840487 0.614889
189 1 0.46214 0.964998 0.660259
142 1 0.388197 0.849514 0.721713
71 1 0.549356 0.835399 0.711243
262 1 0.355195 0.902154 0.569841
257 1 0.626264 0.977568 0.688848
319 2 0.655377 0.845698 0.633802
248 1 0.586363 0.947628 0.96251
111 1 0.489676 0.874409 0.856744
295 2 0.563666 0.815516 0.961298
315 2 0.357135 0.793709 0.991547
98 1 0.372439 0.975609 0.82806
228 1 0.348811 0.78206 0.859143
223 1 0.657013 0.887812 0.81008
264 1 0.860809 0.192168 0.123543
186 1 0.9623 0.0295294 0.196612
254 1 0.714108 0.150848 0.0968019
146 1 0.954594 0.0801147 0.0626345
147 1 0.814927 0.025398 0.126171
314 2 0.720759 0.00951985 0.221878
87 1 0.715822 0.0280586 0.350455
210 1 0.932635 0.151547 0.285166
349 2 0.693443 0.0799132 0.457438
57 1 0.808586 0.14669 0.408493
299 2 0.93179 0.195135 0.419991
342 2 0.70402 0.180105 0.342611
251 1 0.970375 0.0258379 0.355985
50 1 0.691085 0.217142 0.484692
207 1 0.791611 0.115933 0.252255
73 1 0.772636 0.110398 0.568745
231 1 0.766541 0.064253 0.725864
166 1 0.900887 0.128479 0.664798
336 2 0.855651 0.219162 0.72827
156 1 0.87968 0.242908 0.533946
158 1 0.93238 0.0924747 0.505652
58 1 0.817712 0.0867891 0.978901
347 2 0.915694 0.0326362 0.917516
33 1 0.837258 0.129765 0.83928
265 1 0.727628 0.210598 0.774661
209 1 0.695519 0.17743 0.926948
112 1 0.982048 0.132545 0.920951
185 1 0.68962 0.0309145 0.856346
173 1 0.976893 0.0438874 0.798483
318 2 0.692814 0.0556984 0.989867
261 1 0.861194 0.23107 0.977834
322 2 0.927209 0.257204 0.217731
65 1 0.891311 0.345499 0.0973103
317 2 0.686768 0.464032 0.0688079
80 1 0.733366 0.355164 0.0266609
136 1 0.822774 0.479043 0.0615706
103 1 0.758688 0.393932 0.179833
162 1 0.972211 0.423953 -0.00597313
97 1 0.948734 0.497036 0.131272
331 2 0.760917 0.27352 0.122631
4 1 0.70445 0.46696 0.372593
148 1 0.869889 0.449641 0.406278
326 2 0.790805 0.373993 0.310535
120 1 0.692832 0.306658 0.36545
117 1 0.861328 0.298351 0.399364
5 1 0.904663 0.388007 0.244751
105 1 0.760297 0.362907 0.505966
293 2 0.986881 0.390813 0.367437
48 1 0.806831 0.265299 0.253388
276 1 0.743787 0.429684 0.632978
150 1 0.896648 0.41855 0.564747
131 1 0.935568 0.302544 0.677506
94 1 0.761336 0.263645 0.629298
306 2 0.994512 0.432115 0.704161
1 1 0.870827 0.482212 0.70355
44 1 0.700675 0.334625 0.872241
159 1 0.803485 0.360092 0.766796
234 1 0.850533 0.37292 0.921097
225 1 0.928187 0.2769 0.835335
167 1 0.958025 0.430065 0.840764
320 2 0.984447 0.320913 0.933925
63 1 0.737976 0.486729 0.922056
309 2 0.837347 0.469427 0.834495
271 1 0.705742 0.499772 0.773998
304 2 0.803304 0.259054 0.861431
233 1 0.75356 0.648399 0.240576
258 1 0.712545 0.592403 0.0585053
356 2 0.798501 0.572576 0.153447
132 1 0.864239 0.648408 0.0828572
141 1 0.735765 0.741662 0.0963237
10 1 0.911957 0.644522 0.237193
289 2 0.972023 0.573092 0.0280454
211 1 0.668927 0.526001 0.211022
335 2 0.753026 0.583633 0.36958
100 1 0.890236 0.603124 0.379171
202 1 0.896478 0.742301 0.471848
25 1 0.765263 0.727258 0.380132
143 1 0.820105 0.517226 0.279821
292 2 0.881109 0.73364 0.325951
300 2 0.813582 0.646076 0.472945
36 1 0.674575 0.639226 0.470564
21 1 0.768625 0.530121 0.495462
280 1 0.913431 0.573499 0.529591
348 2 0.818998 0.537724 0.608736
303 2 0.921017 0.603815 0.663521
88 1 0.827903 0.67113 0.615899
183 1 0.686416 0.736865 0.702476
130 1 0.696064 0.588559 0.625961
110 1 0.920645 0.726414 0.736102
285 1 0.881214 0.541825 0.928867
27 1 0.756991 0.670384 0.913993
7 1 0.917655 0.686914 0.892052
308 2 0.691685 0.653384 0.802649
216 1 0.815182 0.621133 0.768772
81 1 0.969778 0.577027 0.788279
128 1 0.74747 0.890744 0.132247
323 2 0.895534 0.920759 0.144204
126 1 0.940894 0.763706 0.144746
337 2 0.967246 0.826664 0.0284991
152 1 0.898858 0.941509 0.012083
245 1 0.977292 0.874475 0.246412
75 1 0.815597 0.790116 0.226976
83 1 0.736716 0.879742 0.400877
217 1 0.897701 0.851932 0.371079
291 2 0.736317 0.88653 0.269697
235 1 0.83544 0.965892 0.273926
72 1 0.844382 0.98813 0.441612
346 2 0.796184 0.792338 0.65818
242 1 0.91067 0.818967 0.608006
107 1 0.768147 0.912933 0.698644
215 1 0.728455 0.956378 0.551326
270 1 0.879739 0.972692 0.598732
28 1 0.741526 0.785716 0.541027
301 2 0.834338 0.892634 0.515486
193 1 0.94418 0.891678 0.743727
281 1 0.973525 0.909332 0.496862
345 2 0.869699 0.990803 0.731277
74 1 0.700985 0.806234 0.94615
15 1 0.956021 0.841718 0.89098
259 1 0.838338 0.95271 0.84633
190 1 0.749976 0.943752 0.99065
255 1 0.813296 0.789785 0.815762
37 1 0.852494 0.789658 1.01075
ITEM: TIMESTEP
20000000
ITEM: NUMBER OF ATOMS
360
ITEM: BOX BOUNDS pp pp pp
0.0000000000000000e+00 6.6943295008216896e+00
0.0000000000000000e+00 6.6943295008216896e+00
0.0000000000000000e+00 6.6943295008216896e+00
ITEM: ATOMS id type xs ys zs
224 1 0.177487 0.0757894 0.143699
340 2 0.235535 0.196325 0.109802
278 1 0.186704 0.2118 0.241699
355 2 0.0318145 0.0422865 0.0326184
147 1 0.0106188 0.142229 0.147217
146 1 0.130441 0.134623 0.0110462
238 1 0.281143 0.065574 0.00982054
163 1 0.0713971 0.0790802 0.268112
289 2 0.214775 0.193181 0.487838
218 1 0.144269 0.154954 0.387011
327 2 0.276108 0.183481 0.341473
318 2 0.0213067 0.0297155 0.372071
262 1 0.257081 0.0707442 0.473267
9 1 0.240839 0.0705437 0.285587
108 1 0.0360567 0.229738 0.281867
54 1 0.155255 -0.00175287 0.383577
96 1 0.178481 0.154417 0.614223
251 1 0.102754 0.066078 0.522948
232 1 0.274468 0.129775 0.731334
230 1 0.243407 0.0211432 0.620717
354 2 0.250955 -0.0019545 0.74801
131 1 0.069541 0.214837 0.743768
58 1 0.125273 0.0608985 0.742293
145 1 0.213184 0.120324 0.873783
349 2 0.0817904 0.130836 0.846779
16 1 0.0826368 0.0106127 0.892355
334 2 0.194141 0.209034 0.775431
59 1 0.266276 0.226934 0.995178
256 1 0.120017 0.247206 0.892983
174 1 0.281334 0.478725 0.0753687
160 1 0.0717669 0.433983 0.0482192
297 2 0.160384 0.383637 0.12863
89 1 0.0550647 0.375368 0.199407
129 1 0.274777 0.319068 0.137991
250 1 0.194066 0.385429 0.265554
292 2 0.019781 0.491544 0.155985
122 1 0.123315 0.27131 0.103574
112 1 0.19461 0.354316 -0.0021201
115 1 0.18314 0.450474 0.413911
66 1 0.212214 0.292965 0.38058
62 1 0.0563821 0.370233 0.391747
305 2 0.288552 0.411141 0.332975
125 1 0.325655 0.299073 0.280448
82 1 0.0846317 0.501783 0.279976
351 2 0.269602 0.403485 0.643344
178 1 0.272721 0.284352 0.709655
49 1 0.138278 0.432603 0.570007
194 1 0.249103 0.320994 0.54111
133 1 0.0442581 0.337749 0.647788
323 2 0.129102 0.459736 0.69406
345 2 0.154887 0.282257 0.648947
86 1 0.283902 0.485418 0.534349
43 1 0.0964595 0.262116 0.511481
51 1 0.0115766 0.470059 0.731847
341 2 0.0402456 0.384692 0.508977
284 1 0.283738 0.427957 0.771755
320 2 0.187862 0.404669 0.877587
272 1 0.310594 0.427873 0.925038
287 1 0.145857 0.351754 0.766311
81 1 0.0505395 0.390281 0.893427
116 1 0.267067 0.289908 0.855294
162 1 0.0922794 0.618465 0.0176526
5 1 0.151068 0.538026 0.138972
288 1 0.185261 0.700561 0.130182
314 2 0.224248 0.594082 0.0432616
316 2 0.151713 0.628454 0.246984
103 1 0.0359936 0.646804 0.184586
53 1 0.311754 0.599788 0.17322
325 2 0.139852 0.751238 0.0103682
60 1 0.307145 0.730855 0.472218
202 1 0.0935168 0.640925 0.35405
165 1 0.229624 0.720839 0.319364
171 1 0.241582 0.598453 0.438355
313 2 0.174011 0.718613 0.447105
7 1 0.0491365 0.522397 0.446408
119 1 0.244621 0.535728 0.29908
157 1 0.0873276 0.580582 0.639543
139 1 0.216655 0.6606 0.583526
225 1 0.227241 0.541126 0.68475
293 2 0.158333 0.552309 0.526861
274 1 0.281609 0.714317 0.721603
309 2 0.171458 0.642794 0.745809
6 1 0.0797333 0.662376 0.513031
8 1 0.0230977 0.725296 0.902903
130 1 0.278965 0.597203 0.828183
214 1 0.224701 0.681434 0.953559
358 2 0.121434 0.63232 0.892
69 1 0.15233 0.739514 0.819971
143 1 0.046562 0.624774 0.782446
136 1 0.0172045 0.549289 0.908787
85 1 0.173137 0.509486 0.95322
273 1 0.14131 0.51475 0.810905
228 1 0.334792 0.573983 0.971842
46 1 0.187648 0.917527 0.251251
204 1 0.121877 0.847391 0.110634
99 1 0.290461 0.80797 0.188417
79 1 0.0570563 0.981083 0.151621
140 1 0.251127 0.818483 0.0360027
84 1 0.283859 0.950006 0.123157
186 1 0.0132502 0.912584 0.0187807
241 1 0.157006 0.970764 0.024662
52 1 0.0171397 0.754599 0.0589289
212 1 0.0459327 0.931048 0.47552
243 1 0.0689073 0.790892 0.409596
221 1 0.204897 0.858979 0.385941
235 1 0.0233947 0.904504 0.314201
41 1 0.322265 0.969264 0.370307
70 1 0.101349 0.783292 0.248518
346 2 0.183506 0.946436 0.500975
109 1 0.166312 0.813048 0.529242
134 1 0.110873 0.937838 0.61753
219 1 0.236983 0.854738 0.678909
275 1 0.105469 0.741849 0.67161
294 2 0.289065 0.776447 0.593354
12 1 0.308352 0.896602 0.5195
217 1 0.00589196 0.788283 0.547061
68 1 0.275255 0.816642 0.868486
206 1 0.134002 0.845123 0.934348
106 1 0.127555 0.898539 0.773277
333 2 0.029393 0.7704 0.77152
61 1 0.22999 0.957729 0.890673
302 2 0.0229796 0.975665 0.764726
38 1 0.0052914 0.873326 0.857119
64 1 0.413015 0.0232585 0.094044
67 1 0.511234 0.112837 0.1727
317 2 0.339532 0.0586707 0.220841
77 1 0.423263 0.180738 0.0186881
30 1 0.657781 0.153171 0.136785
248 1 0.553963 0.0880495 0.00859601
180 1 0.354723 0.169748 0.155974
342 2 0.639192 0.188342 0.0126546
114 1 0.39702 0.130594 0.295359
155 1 0.560398 0.184953 0.449532
192 1 0.55728 0.0247595 0.481168
24 1 0.406572 0.0775537 0.440433
95 1 0.509489 0.0280105 0.312328
48 1 0.573368 0.175148 0.298184
19 1 0.32776 0.222492 0.448959
222 1 0.461342 0.110732 0.574895
149 1 0.38816 0.0432325 0.700713
332 2 0.583364 0.139201 0.577691
240 1 0.539014 0.0984462 0.707429
290 2 0.358783 0.0503071 0.550931
213 1 0.412874 0.197973 0.74527
93 1 0.66255 0.19303 0.665522
71 1 0.634245 0.0183596 0.626848
144 1 0.330252 0.176007 0.594398
227 1 0.517135 0.244833 0.61738
330 2 0.609743 0.084976 0.887561
45 1 0.484186 0.14667 0.875078
98 1 0.359044 0.0539143 0.857332
321 2 0.432468 0.0226458 0.957019
205 1 0.573369 0.2585 0.935339
328 2 0.348968 0.192878 0.895204
260 1 0.462239 0.255481 0.215345
42 1 0.346404 0.447605 0.215583
36 1 0.483082 0.400778 0.145498
35 1 0.381237 0.339941 0.032774
200 1 0.642908 0.296267 0.233242
92 1 0.562918 0.273019 0.0878905
94 1 0.648264 0.369864 0.0108898
322 2 0.516223 0.353175 -0.0030042
120 1 0.616476 0.468608 0.236176
353 2 0.655015 0.394264 0.143725
263 1 0.593774 0.50092 0.0850973
319 2 0.578215 0.288547 0.362354
247 1 0.504539 0.393274 0.315676
161 1 0.363899 0.378071 0.435641
13 1 0.448541 0.262972 0.369004
220 1 0.522244 0.352134 0.457434
239 1 0.386138 0.319719 0.596514
21 1 0.542978 0.402286 0.642262
246 1 0.640486 0.443323 0.51866
296 2 0.644232 0.313158 0.664114