ITEM: TIMESTEP
0
ITEM: NUMBER OF ATOMS
360
ITEM: BOX BOUNDS pp pp pp
0.0000000000000000e+00 6.6943295008216896e+00
0.0000000000000000e+00 6.6943295008216896e+00
0.0000000000000000e+00 6.6943295008216896e+00
ITEM: ATOMS id type xs ys zs
284 1 0.179345 0.235053 0.186031
104 1 0.0585251 0.0776294 0.0761114
255 1 0.198848 0.0798995 0.148995
44 1 0.0626134 0.1295 0.227664
8 1 0.145737 0.206451 0.0225619
125 1 0.305659 0.209029 0.0952361
234 1 0.0246388 0.233508 0.115738
96 1 0.305813 0.151988 0.23928
249 1 0.21865 0.112024 0.410516
345 2 0.187787 0.145696 0.276734
33 1 0.00786012 0.132849 0.439215
277 1 0.0926967 0.0363565 0.3435
128 1 0.0934699 0.21899 0.341258
330 2 0.327596 0.0198297 0.371945
36 1 0.224198 0.00553677 0.272649
158 1 0.132166 0.201594 0.486275
136 1 0.138935 0.036642 0.508287
250 1 0.113921 0.0263118 0.666194
323 2 0.278985 0.138098 0.739454
64 1 0.233164 0.119352 0.618367
143 1 0.0558443 0.165575 0.639647
3 1 0.208556 0.243695 0.705485
29 1 0.274188 0.234444 0.520343
102 1 0.314881 0.0276798 0.507165
292 2 0.13476 0.128229 0.749161
105 1 0.239169 0.0872571 0.997021
161 1 0.10864 0.0647492 0.896265
129 1 0.000438809 0.144428 0.810354
48 1 0.177064 0.202592 0.855619
195 1 0.0130916 0.18513 0.957544
7 1 0.314689 0.0965935 0.863389
212 1 0.221398 0.0302758 0.775131
197 1 0.319639 0.248362 0.80693
11 1 0.234528 0.421285 0.0209507
228 1 0.298877 0.333311 0.202334
69 1 0.121272 0.356453 0.121644
352 2 0.237357 0.310887 0.0898598
135 1 0.0365271 0.460466 0.0581328
199 1 0.0549426 0.476802 0.20485
283 1 0.0424843 0.335349 0.24958
304 2 0.178051 0.341822 0.247281
100 1 0.11247 0.36978 0.379968
331 2 0.232701 0.42399 0.380984
343 2 0.0641898 0.322572 0.489769
13 1 0.235581 0.28643 0.356697
28 1 0.321441 0.48854 0.447205
92 1 0.205981 0.359161 0.489171
54 1 0.200344 0.465206 0.270955
247 1 0.0577145 0.456869 0.494188
337 2 0.301438 0.308792 0.660502
51 1 0.2111 0.410635 0.683904
148 1 0.104877 0.320835 0.602633
310 2 0.0150722 0.373074 0.679653
357 2 0.10933 0.470048 0.626788
185 1 0.206881 0.490287 0.55123
194 1 0.213054 0.354424 0.839018
79 1 0.277858 0.276078 0.965082
145 1 0.0815482 0.322348 0.94148
85 1 0.118179 0.464376 0.895764
70 1 0.0679657 0.308292 0.785568
333 2 0.33033 0.363569 0.874335
350 2 0.222037 0.483114 0.783517
58 1 0.064385 0.464669 0.760047
265 1 0.22323 0.6893 0.220254
301 2 0.196073 0.683447 0.0864741
314 2 0.0702795 0.592187 0.129062
261 1 0.192291 0.542513 0.146079
187 1 0.0633935 0.703608 0.0654837
177 1 0.302617 0.611228 0.0547371
19 1 0.160065 0.575266 0.00666964
134 1 0.309348 0.739124 0.326179
99 1 0.293579 0.638362 0.462547
257 1 0.297374 0.573355 0.316748
82 1 0.0341142 0.604167 0.421037
77 1 0.164592 0.696926 0.378504
326 2 0.164729 0.643777 0.494428
229 1 0.170076 0.52798 0.405625
239 1 0.101088 0.601908 0.261755
67 1 0.00801903 0.74147 0.357527
298 2 0.0670322 0.50527 0.338746
299 2 0.199673 0.70446 0.73575
2 1 0.0721487 0.587798 0.5794
240 1 0.202908 0.693292 0.601443
168 1 0.327034 0.628311 0.658879
211 1 0.191903 0.571178 0.68054
231 1 0.0462814 0.611276 0.72977
329 2 0.323916 0.714021 0.55766
322 2 0.326093 0.555238 0.567633
63 1 0.0756275 0.729094 0.507017
351 2 0.0677756 0.581537 0.854655
275 1 0.00631972 0.592501 0.972377
155 1 0.19947 0.610286 0.84286
264 1 0.180399 0.726447 0.952632
101 1 0.105284 0.73773 0.82186
5 1 0.332602 0.694738 0.810023
287 1 0.282149 0.503241 0.9065
160 1 0.15259 0.972786 0.0289999
202 1 0.306655 0.944465 0.0541582
263 1 0.145743 0.827095 0.073722
80 1 0.107583 0.918661 0.19189
312 2 0.220077 0.910364 0.139784
149 1 0.0923628 0.756029 0.228367
226 1 0.00425451 0.941339 0.0653306
285 1 0.284693 0.781483 0.110351
311 2 0.0142977 0.824515 0.0950301
97 1 0.206091 0.939207 0.42076
260 1 0.198923 0.83778 0.308647
43 1 0.0381477 0.889211 0.340333
318 2 0.105942 0.824644 0.413959
95 1 0.241579 0.781438 0.472479
307 2 0.0406845 0.964245 0.455852
15 1 0.300926 0.778513 0.672699
328 2 0.192091 0.813578 0.596895
21 1 0.240181 0.950151 0.638534
98 1 0.00845615 0.913352 0.64585
222 1 0.102533 0.883387 0.528048
25 1 0.082243 0.757126 0.661912
279 1 0.139792 0.873373 0.748597
65 1 0.132395 0.884559 0.896468
175 1 0.274186 0.956059 0.913858
353 2 0.229083 0.849125 0.97285
232 1 0.259796 0.814573 0.848713
152 1 0.0186428 0.825294 0.960761
360 2 0.0549699 0.958421 0.950969
89 1 0.0216158 0.995034 0.803215
119 1 0.606512 0.0818134 0.247952
342 2 0.522623 0.0362774 0.156653
267 1 0.402114 0.0498029 0.117585
38 1 0.491324 0.161894 0.166479
150 1 0.613875 0.138229 0.0870582
60 1 0.49119 0.248579 0.0447812
291 2 0.400687 0.244788 0.162249
24 1 0.427435 0.0470154 0.26127
341 2 0.617149 0.107296 0.404084
109 1 0.520892 0.192993 0.497189
117 1 0.508809 0.163002 0.347505
66 1 0.444347 0.0354687 0.413729
40 1 0.37576 0.172958 0.425148
305 2 0.576405 0.00852044 0.680948
327 2 0.408641 0.112766 0.531093
84 1 0.49191 0.105442 0.652395
68 1 0.357783 0.0546855 0.679148
254 1 0.642703 0.139774 0.64692
73 1 0.570011 0.0454204 0.508771
111 1 0.373286 0.203533 0.669571
133 1 0.447578 0.160175 0.809209
319 2 0.635031 0.23179 0.99632
274 1 0.573495 0.213224 0.881384
144 1 0.620558 0.093333 0.793247
339 2 0.543439 0.0855396 0.911376
94 1 0.432438 0.12833 0.969213
37 1 0.46227 0.00210631 0.843609
336 2 0.386327 0.00555758 0.944652
325 2 0.552573 0.18976 0.752128
246 1 0.335873 0.482758 0.151343
248 1 0.457591 0.366173 0.187432
17 1 0.38291 0.369348 0.0358881
30 1 0.600931 0.40372 0.169232
147 1 0.480976 0.476356 0.0721848
321 2 0.357068 0.496015 0.0124509
302 2 0.597299 0.267688 0.117101
290 2 0.633738 0.456435 0.0552321
142 1 0.618747 0.418931 0.452375
110 1 0.368852 0.427898 0.302226
309 2 0.544601 0.435407 0.307449
268 1 0.655478 0.381562 0.312414
221 1 0.514385 0.335503 0.366705
280 1 0.365619 0.326297 0.425743
165 1 0.401146 0.256083 0.294862
121 1 0.477141 0.489026 0.401204
31 1 0.629265 0.252449 0.396222
176 1 0.575826 0.266152 0.250657
227 1 0.498215 0.358707 0.529936
26 1 0.39748 0.495491 0.653045
10 1 0.588439 0.403398 0.675988
356 2 0.446216 0.370702 0.648245
86 1 0.646264 0.261087 0.744546
137 1 0.642965 0.299433 0.541027
355 2 0.42672 0.482464 0.526228
138 1 0.353272 0.371912 0.566109
208 1 0.525791 0.25313 0.636394
295 2 0.474806 0.453261 0.747449
313 2 0.408624 0.252379 0.539608
223 1 0.472847 0.301092 0.768778
91 1 0.554617 0.370891 0.992206
215 1 0.58784 0.380744 0.829373
203 1 0.433397 0.438993 0.902077
127 1 0.350187 0.390973 0.750694
107 1 0.427471 0.289332 0.911262
273 1 0.551723 0.655672 0.225539
4 1 0.61544 0.707346 0.0683053
282 1 0.462337 0.637096 0.0782145
52 1 0.610467 0.566923 0.118585
124 1 0.472214 0.511747 0.229279
42 1 0.371951 0.646541 0.194335
108 1 0.46103 0.642653 0.344612
39 1 0.580519 0.582414 0.435537
258 1 0.622378 0.522834 0.275988
332 2 0.639017 0.64352 0.321156
201 1 0.545525 0.728268 0.488402
272 1 0.385969 0.74947 0.455855
296 2 0.537031 0.641531 0.578073
217 1 0.635086 0.559001 0.69799
146 1 0.553674 0.505713 0.570739
59 1 0.493158 0.618392 0.706347
171 1 0.444906 0.733394 0.597868
233 1 0.595544 0.723441 0.651597
269 1 0.437099 0.605126 0.509408
23 1 0.665903 0.626082 0.554532
141 1 0.591081 0.706624 0.804489
242 1 0.371965 0.546796 0.790608
1 1 0.580039 0.593557 0.964318
335 2 0.462949 0.648454 0.826324
266 1 0.419913 0.595505 0.938024
216 1 0.537183 0.522323 0.82435
126 1 0.510108 0.721294 0.936032
103 1 0.340767 0.737999 0.960504
303 2 0.626267 0.742157 0.931548
207 1 0.567864 0.846964 0.012383
46 1 0.436457 0.782321 0.0735245
151 1 0.61508 0.916102 0.222466
344 2 0.555825 0.773793 0.159229
259 1 0.489491 0.906988 0.139449
238 1 0.650376 0.974241 0.0826598
184 1 0.440944 0.78252 0.227457
188 1 0.340112 0.919877 0.202629
34 1 0.49748 0.994992 0.007646
230 1 0.591239 0.978736 0.368968
115 1 0.481642 0.907265 0.30148
56 1 0.477668 0.876546 0.459174
300 2 0.444524 0.78606 0.35804
186 1 0.568097 0.791003 0.35094
106 1 0.342192 0.888724 0.380867
198 1 0.635861 0.879147 0.476253
209 1 0.447787 0.977182 0.577264
289 2 0.415148 0.849643 0.647744
116 1 0.544938 0.859113 0.59372
316 2 0.574941 0.81221 0.736115
192 1 0.486448 0.928662 0.720713
179 1 0.335166 0.876173 0.551053
112 1 0.443694 0.767722 0.738934
153 1 0.40207 0.875252 0.950195
183 1 0.622678 0.973084 0.917267
235 1 0.343322 0.903242 0.757391
189 1 0.547165 0.849449 0.853403
293 2 0.396401 0.793694 0.858062
196 1 0.656013 0.94152 0.754104
49 1 0.90589 0.123072 0.130773
204 1 0.781316 0.169466 0.0512817
45 1 0.73761 0.0573422 0.169903
61 1 0.772635 0.0203965 0.00322963
334 2 0.913704 0.199644 0.0409281
237 1 0.719414 0.211659 0.179326
88 1 0.730286 0.159537 0.329125
256 1 0.843856 0.144612 0.428397
317 2 0.975423 0.0841978 0.324844
236 1 0.943704 0.208793 0.292286
210 1 0.847477 0.0640178 0.286143
113 1 0.922834 0.0141615 0.434422
262 1 0.751074 0.00192201 0.42771
167 1 0.69308 0.150401 0.496693
225 1 0.827862 0.0420085 0.568134
55 1 0.926422 0.202966 0.550464
16 1 0.91848 0.0817583 0.696458
114 1 0.785828 0.183936 0.637042
157 1 0.75594 0.0492979 0.705576
130 1 0.997411 0.0396465 0.566464
297 2 0.87102 0.181342 0.763852
71 1 0.853977 0.0585232 0.840953
308 2 0.720619 0.0196362 0.859464
181 1 0.854974 0.194199 0.902528
41 1 0.74184 0.171301 0.811898
213 1 0.918885 0.0714263 0.988192
286 1 0.678676 0.132012 0.947091
164 1 0.698112 0.327263 0.0610669
163 1 0.749842 0.362552 0.200564
224 1 0.868316 0.275953 0.151401
120 1 0.903675 0.432415 0.202314
276 1 0.81177 0.4291 0.0699951
75 1 0.942506 0.325246 0.0266617
324 2 0.982685 0.355259 0.143079
348 2 0.903531 0.342115 0.303012
180 1 0.817434 0.44651 0.337772
218 1 0.96551 0.28989 0.42374
338 2 0.734999 0.377709 0.458859
118 1 0.961344 0.445478 0.373641
122 1 0.858872 0.425009 0.488066
244 1 0.798742 0.295551 0.380708
349 2 0.8004 0.261598 0.263931
200 1 0.932921 0.259542 0.68522
252 1 0.697683 0.436094 0.582283
32 1 0.828173 0.378659 0.630021
358 2 0.736883 0.293424 0.629404
20 1 0.964266 0.355531 0.563295
243 1 0.792036 0.28077 0.525519
27 1 0.826235 0.38051 0.891211
53 1 0.702872 0.295895 0.894115
132 1 0.965879 0.443065 0.926768
170 1 0.674026 0.458701 0.934068
131 1 0.948704 0.2907 0.857485
241 1 0.717177 0.422812 0.758488
139 1 0.798953 0.294579 0.753926
83 1 0.913671 0.408773 0.763818
315 2 0.806009 0.291126 0.996888
206 1 0.789297 0.690123 0.136361
271 1 0.72888 0.577546 0.0250547
50 1 0.927231 0.55593 0.1122
93 1 0.947036 0.693345 0.184057
214 1 0.771551 0.528833 0.199266
288 1 0.910625 0.698283 0.0159937
346 2 0.691746 0.635551 0.190076
154 1 0.667227 0.749299 0.230959
359 2 0.910246 0.68487 0.31237
81 1 0.764057 0.646773 0.302764
219 1 0.866681 0.592941 0.399287
159 1 0.72592 0.537033 0.416071
35 1 0.692823 0.720701 0.417593
270 1 0.930545 0.559744 0.268892
251 1 0.73921 0.684993 0.728922
6 1 0.794865 0.71378 0.588977
76 1 0.906414 0.643297 0.671523
166 1 0.832521 0.560744 0.555087
278 1 0.934097 0.680942 0.503714
90 1 0.790807 0.550327 0.723606
340 2 0.997821 0.717816 0.741997
191 1 0.961869 0.500843 0.628281
294 2 0.947253 0.527798 0.500044
169 1 0.967307 0.695809 0.867534
140 1 0.818674 0.653671 0.85147
193 1 0.680754 0.586216 0.849145
205 1 0.927777 0.551393 0.822195
12 1 0.75638 0.721994 0.986524
320 2 0.800299 0.512393 0.842811
162 1 0.85676 0.544348 0.95632
173 1 0.859705 0.828375 0.0827509
14 1 0.71513 0.830982 0.106079
190 1 0.772788 0.919028 0.214352
123 1 0.952836 0.846014 0.215787
220 1 0.86128 0.992101 0.11165
182 1 0.820625 0.775189 0.246105
62 1 0.977514 0.998074 0.223724
18 1 0.721721 0.860664 0.346111
281 1 0.867621 0.902675 0.347075
245 1 0.960772 0.852224 0.464465
87 1 0.838774 0.767806 0.410135
306 2 0.707481 0.993228 0.286338
78 1 0.929111 0.796185 0.606273
354 2 0.920058 0.94915 0.541981
22 1 0.710065 0.828428 0.660032
156 1 0.864967 0.774974 0.747356
72 1 0.683299 0.972443 0.583853
74 1 0.848654 0.9155 0.659245
253 1 0.797813 0.869199 0.518193
347 2 0.679909 0.75893 0.537844
172 1 0.752391 0.875974 0.963605
174 1 0.707255 0.788634 0.826857
178 1 0.905586 0.933409 0.942694
9 1 0.80961 0.908164 0.815983
57 1 0.853721 0.792978 0.907889
47 1 0.982801 0.841234 0.803563
ITEM: TIMESTEP
100000
ITEM: NUMBER OF ATOMS
360
ITEM: BOX BOUNDS pp pp pp
0.0000000000000000e+00 6.6943295008216896e+00
0.0000000000000000e+00 6.6943295008216896e+00
0.0000000000000000e+00 6.6943295008216896e+00
ITEM: ATOMS id type xs ys zs
284 1 0.191788 0.111202 0.202408
69 1 0.0202354 0.181374 0.153417
125 1 0.149738 0.199691 0.0697463
255 1 0.0762066 0.0298607 0.117385
103 1 0.271255 0.0907163 0.0584072
228 1 0.296116 0.253251 0.0552816
317 2 0.17442 0.114902 0.332822
128 1 0.201494 0.0621908 0.440781
33 1 0.0552977 0.124123 0.423293
36 1 0.324604 0.0786888 0.334916
283 1 0.107434 0.21511 0.292184
229 1 0.183583 0.214507 0.428236
234 1 0.0483962 0.0778902 0.276994
307 2 0.0895357 0.00797057 0.379704
48 1 0.166147 0.0861286 0.712914
249 1 0.299862 0.162029 0.53603
337 2 0.0485124 0.130861 0.657548
327 2 0.227049 0.187442 0.628729
13 1 0.127847 0.113058 0.561179
92 1 0.109588 0.248617 0.670736
352 2 0.225066 0.185724 0.962713
133 1 0.253895 0.0638055 0.884881
360 2 0.139259 0.0681302 0.837563
161 1 0.130104 0.0790974 0.973827
129 1 0.142094 0.194958 0.839048
8 1 0.025344 0.202618 0.94964
323 2 0.262257 0.136791 0.76993
89 1 0.0225457 0.102444 0.805846
79 1 0.300494 0.253298 0.881573
54 1 0.295422 0.4042 0.12431
324 2 0.19485 0.332335 0.0655063
246 1 0.139793 0.408505 0.151743
38 1 0.246512 0.295521 0.22451
145 1 0.0605695 0.322295 0.0482993
345 2 0.108039 0.288156 0.180504
147 1 0.210218 0.437398 -0.000827289
331 2 0.226662 0.435412 0.237474
199 1 0.029871 0.488364 0.253609
82 1 0.120692 0.370024 0.311949
28 1 0.277793 0.378578 0.35569
185 1 0.168467 0.376884 0.462365
357 2 0.293923 0.293562 0.460618
218 1 0.0379263 0.274196 0.432608
326 2 0.0487722 0.464078 0.382197
148 1 0.028218 0.473134 0.71932
51 1 0.244662 0.313541 0.571924
127 1 0.194045 0.47393 0.711384
247 1 0.117935 0.407281 0.596646
355 2 0.240165 0.463642 0.570077
304 2 0.124016 0.259124 0.536881
107 1 0.262048 0.255852 0.731114
26 1 0.319912 0.401052 0.670907
85 1 0.0644218 0.444676 0.946912
310 2 0.0447502 0.324932 0.891682
17 1 0.257071 0.392099 0.850526
287 1 0.162348 0.293232 0.948811
197 1 0.13166 0.355335 0.784704
333 2 0.304023 0.493489 0.927012
164 1 0.333059 0.527312 0.0522657
187 1 0.173952 0.607253 0.0400611
149 1 0.165596 0.719574 0.171737
19 1 0.2127 0.554173 0.173686
239 1 0.0501697 0.61559 0.168205
288 1 0.0686637 0.736441 0.0495191
348 2 0.105775 0.517234 0.0826678
265 1 0.304733 0.679964 0.0974517
275 1 0.0324251 0.59331 -0.0126456
25 1 0.125636 0.517288 0.490385
257 1 0.277336 0.677196 0.274016
294 2 0.136741 0.618197 0.264496
63 1 0.176795 0.65467 0.423803
351 2 0.0663617 0.628612 0.469401
99 1 0.271912 0.537727 0.467124
87 1 0.113573 0.737434 0.314969
67 1 0.0312803 0.602868 0.351902
100 1 0.188519 0.501521 0.336282
2 1 0.15196 0.652582 0.583942
231 1 0.238537 0.716782 0.697749
98 1 0.0181597 0.715202 0.603413
20 1 0.110889 0.606581 0.728743
350 2 0.124488 0.532156 0.62362
211 1 0.289443 0.559247 0.632159
179 1 0.284596 0.696752 0.54297
140 1 0.0311713 0.733916 0.768014
152 1 0.121263 0.675507 0.887125
299 2 0.253959 0.682753 0.841155
266 1 0.294568 0.627531 0.94729
205 1 0.0223779 0.567161 0.844878
15 1 0.287318 0.561003 0.794284
58 1 0.17316 0.533874 0.894921
160 1 0.0758977 0.881848 0.0616743
77 1 0.215831 0.957851 0.107199
80 1 0.0992178 0.847971 0.202034
318 2 0.197007 0.810338 0.0859753
285 1 0.317459 0.842273 0.0888871
312 2 0.283233 0.958984 0.236674
43 1 0.262794 0.83379 0.242326
222 1 0.138933 0.90686 0.441002
245 1 0.252082 0.787413 0.411696
354 2 0.16949 0.849342 0.313684
102 1 0.284271 0.930348 0.36128
113 1 0.0586218 0.757648 0.447461
123 1 0.032563 0.865346 0.343463
97 1 0.160857 0.973676 0.285614
156 1 0.0043697 0.96529 0.470737
232 1 0.10198 0.844032 0.700672
328 2 0.0670871 0.840845 0.548586
7 1 0.0984724 0.966871 0.606635
64 1 0.291205 0.867532 0.688278
279 1 0.188507 0.82692 0.57668
343 2 0.298344 0.988702 0.73671
143 1 0.00369918 0.964213 0.727805
136 1 0.271509 0.981248 0.603067
194 1 0.189989 0.79841 0.809047
202 1 0.0549112 0.815587 0.917118
175 1 0.203949 0.923512 0.944596
105 1 0.1717 0.95129 0.78354
340 2 0.0332939 0.86284 0.803738
40 1 0.313353 0.904884 0.830146
101 1 0.05108 0.971143 0.874541
263 1 0.204936 0.764907 0.973693
238 1 0.661747 0.0641789 0.0705969
267 1 0.334399 0.174036 0.199849
291 2 0.38168 0.149578 0.0758293
119 1 0.487563 0.0869903 0.0484573
332 2 0.559592 0.00612574 0.128212
248 1 0.575082 0.157976 0.156623
188 1 0.361659 0.0197677 0.15439
117 1 0.470445 0.221843 0.250072
24 1 0.462083 0.13167 0.397955
230 1 0.663171 0.0642849 0.309482
306 2 0.565201 0.167098 0.306367
109 1 0.606756 0.148874 0.428752
106 1 0.358176 0.0288937 0.482197
254 1 0.533046 0.015148 0.487433
329 2 0.548371 0.0437842 0.360247
237 1 0.470856 0.077702 0.243064
96 1 0.346725 0.231441 0.345434
73 1 0.457945 0.119383 0.559191
356 2 0.497817 0.191147 0.661373
86 1 0.625384 0.173016 0.588774
111 1 0.490581 0.0819152 0.703834
305 2 0.575621 0.0390513 0.611166
41 1 0.650257 0.088626 0.717678
29 1 0.345264 0.0899245 0.677631
274 1 0.51516 0.169921 0.902385
150 1 0.412701 0.186002 0.787735
144 1 0.55635 0.0192112 0.837514
336 2 0.467436 0.0445271 0.928282
94 1 0.372027 0.1278 0.937821
339 2 0.608731 0.093376 0.95018
68 1 0.398849 0.0318219 0.812156
286 1 0.566412 0.246992 0.768554
224 1 0.62232 0.218494 1.00423
170 1 0.575146 0.344327 0.163496
165 1 0.378111 0.342643 0.248594
110 1 0.446846 0.440978 0.111589
53 1 0.591848 0.473537 0.0611853
60 1 0.455082 0.257476 0.0960429
276 1 0.51421 0.352736 0.00318585
221 1 0.505885 0.402668 0.295168
313 2 0.400983 0.36885 0.382102
31 1 0.528024 0.269091 0.370358
176 1 0.509969 0.400134 0.460133
280 1 0.422559 0.278103 0.479637
349 2 0.598977 0.377321 0.378859
330 2 0.616461 0.274893 0.463071
124 1 0.341654 0.497465 0.255737
214 1 0.644418 0.259045 0.274906
227 1 0.331688 0.408756 0.505033
252 1 0.45085 0.460847 0.593991
84 1 0.529297 0.291815 0.574089
208 1 0.462725 0.376366 0.719427
137 1 0.627139 0.353447 0.681193
338 2 0.586563 0.419663 0.569464
138 1 0.38348 0.249452 0.62833
315 2 0.541144 0.48016 0.738962
319 2 0.571941 0.29445 0.896542
203 1 0.557768 0.4155 0.850749
10 1 0.445172 0.306111 0.869912
59 1 0.395669 0.449817 0.831155
11 1 0.358867 0.393229 0.986951
295 2 0.351332 0.331578 0.785958
325 2 0.399134 0.26161 0.97826
52 1 0.610373 0.541906 0.206989
207 1 0.563194 0.699313 0.178993
298 2 0.347954 0.610588 0.192224
335 2 0.58386 0.600784 0.0927076
91 1 0.452887 0.596121 0.121802
126 1 0.641643 0.723141 0.0476972
134 1 0.412432 0.745893 0.20445
309 2 0.488024 0.497727 0.211436
184 1 0.51153 0.645135 0.412801
258 1 0.572607 0.522764 0.351728
108 1 0.353986 0.659152 0.405105
42 1 0.449987 0.612058 0.281733
35 1 0.650908 0.672305 0.305458
121 1 0.415477 0.509164 0.406363
289 2 0.358115 0.67556 0.656465
146 1 0.432981 0.559674 0.719126
139 1 0.587678 0.562614 0.6616
269 1 0.575492 0.710412 0.594697
168 1 0.43725 0.629084 0.571983
209 1 0.495803 0.711074 0.723732
166 1 0.558557 0.537673 0.519918
217 1 0.649443 0.689911 0.745555
155 1 0.422677 0.623635 0.855834
1 1 0.547985 0.623729 0.979541
171 1 0.576257 0.586174 0.817427
290 2 0.421244 0.630059 0.995755
235 1 0.358597 0.752931 0.785068
141 1 0.670905 0.694501 0.89526
242 1 0.470466 0.50524 0.94721
293 2 0.524176 0.832891 0.208707
153 1 0.606615 0.872845 0.0902087
260 1 0.411282 0.901059 0.226469
177 1 0.457746 0.916837 0.0871296
282 1 0.476322 0.750929 0.0547256
240 1 0.391234 0.805599 0.350205
46 1 0.537616 0.766953 0.318515
95 1 0.434152 0.9732 0.371679
186 1 0.576931 0.899361 0.398315
272 1 0.464647 0.771588 0.487752
347 2 0.459737 0.892657 0.476611
115 1 0.612589 0.756085 0.453121
296 2 0.644121 0.967789 0.476196
259 1 0.552735 0.949929 0.256276
196 1 0.589981 0.950054 0.702952
66 1 0.586099 0.883403 0.558287
262 1 0.450095 0.94551 0.59621
56 1 0.40326 0.781537 0.622528
322 2 0.53624 0.8281 0.663358
21 1 0.337579 0.865773 0.511909
116 1 0.444433 0.884899 0.745232
233 1 0.661165 0.822132 0.669119
264 1 0.362893 0.792634 0.932714
37 1 0.359682 0.979899 0.98831
192 1 0.476462 0.900583 0.900014
308 2 0.652117 0.934494 0.845777
112 1 0.585442 0.826786 0.799298
301 2 0.543546 0.835655 0.998177
34 1 0.576172 0.972982 0.97659
172 1 0.658527 0.846462 0.937834
5 1 0.513195 0.746825 0.90275
49 1 0.874765 0.227994 0.15233
195 1 0.945437 0.108497 0.0505837
104 1 0.892631 0.0937203 0.214454
45 1 0.738338 0.165321 0.207816
204 1 0.782696 0.154218 0.0494363
334 2 0.951929 0.253862 0.0583993
151 1 0.816422 0.00557205 0.0841574
277 1 0.893205 0.0205545 0.347863
256 1 0.947046 0.198585 0.311795
18 1 0.732397 0.0454618 0.448394
62 1 0.800632 0.161196 0.339049
210 1 0.878421 0.121722 0.473942
344 2 0.801443 0.0109852 0.260608
225 1 0.740116 0.194518 0.48901
167 1 0.926473 0.140645 0.704474
212 1 0.968498 0.0599161 0.576409
9 1 0.773824 0.117185 0.619214
131 1 0.726096 0.23706 0.702037
158 1 0.995307 0.211717 0.58025
83 1 0.846428 0.254374 0.589925
183 1 0.737405 0.0438872 0.903169
200 1 0.888169 0.150836 0.905812
321 2 0.845506 0.0411867 0.9584
16 1 0.80334 0.125059 0.780356
292 2 1.00246 0.0729366 0.935786
250 1 0.891265 0.00865002 0.836419
215 1 0.671778 0.174519 0.866658
163 1 0.876965 0.451487 0.214481
88 1 0.726136 0.29592 0.119165
75 1 0.844076 0.378423 0.0709091
135 1 0.726352 0.443757 0.135839
261 1 0.991177 0.456152 0.0911363
236 1 0.989164 0.34124 0.185494
342 2 0.783503 0.485384 0.028114
244 1 0.73201 0.32757 0.396713
44 1 0.816804 0.309605 0.270432
270 1 0.954609 0.383444 0.3329
30 1 0.675281 0.411751 0.279111
180 1 0.822362 0.447188 0.363066
268 1 0.6774 0.453544 0.44195
55 1 0.878219 0.286583 0.424789
219 1 0.936963 0.515907 0.438313
142 1 0.7033 0.32536 0.556774
118 1 0.834461 0.412126 0.524122
241 1 0.789772 0.373333 0.686231
243 1 0.941999 0.344521 0.679522
32 1 0.697976 0.476764 0.600341
278 1 0.989285 0.372738 0.531239
191 1 0.872 0.490164 0.640058
27 1 0.794262 0.425632 0.895316
90 1 0.951323 0.408312 0.824293
181 1 0.777229 0.274198 0.95734
3 1 0.936585 0.331184 0.949912
223 1 0.689691 0.338175 0.821583
70 1 0.834771 0.274932 0.8241
61 1 0.661324 0.379353 0.969397
132 1 0.914536 0.493445 0.965539
216 1 0.684034 0.480556 0.760665
114 1 0.990827 0.259146 0.800873
50 1 0.768706 0.571116 0.2296
81 1 0.83996 0.700982 0.109888
4 1 0.713583 0.587419 0.0827067
93 1 0.905962 0.619313 0.230004
311 2 0.961613 0.668685 0.0823977
346 2 0.726201 0.691682 0.167854
120 1 0.880457 0.546316 0.0976446
182 1 0.828693 0.601667 0.361538
314 2 0.920073 0.523064 0.312196
159 1 0.682506 0.607389 0.45153
359 2 0.701143 0.535888 0.338913
154 1 0.798668 0.74002 0.267533
74 1 0.931154 0.676961 0.473666
39 1 0.759654 0.727671 0.422124
6 1 0.945277 0.731156 0.325961
169 1 0.946534 0.608474 0.70541
23 1 0.822224 0.581543 0.516225
76 1 0.762696 0.604807 0.679085
358 2 0.675052 0.616428 0.577798
78 1 0.869764 0.706333 0.613726
201 1 0.7224 0.725169 0.564807
122 1 1.00435 0.554101 0.566857
320 2 0.741145 0.612752 0.815394
47 1 0.947761 0.69863 0.913863
193 1 0.854105 0.530874 0.811549
162 1 0.822529 0.613111 0.960361
251 1 0.840889 0.69511 0.786746
271 1 0.689169 0.536591 0.929421
14 1 0.691848 0.96732 0.180917
173 1 0.95376 0.795768 0.175367
297 2 0.891933 0.909791 0.0946192
302 2 0.712623 0.942885 0.0115732
206 1 0.778385 0.839816 0.0720888
213 1 0.972687 0.946621 0.217306
226 1 0.936743 0.819882 0.0169383
273 1 0.664654 0.810162 0.225747
190 1 0.826663 0.894655 0.227809
198 1 0.728225 0.924107 0.335638
281 1 0.849201 0.85312 0.388171
253 1 0.722099 0.873614 0.480471
300 2 0.677169 0.799032 0.350909
130 1 0.855921 0.961583 0.499013
174 1 0.801238 0.857024 0.622982
341 2 0.832958 0.784123 0.516441
72 1 0.706774 0.982013 0.599166
22 1 0.94582 0.829454 0.516715
65 1 0.935227 0.828565 0.679567
353 2 0.964619 0.933393 0.594871
303 2 0.844752 0.884995 0.748581
178 1 0.863231 0.993332 0.663357
316 2 0.772032 0.743264 0.683948
57 1 0.915244 0.854522 0.848516
189 1 0.736169 0.806538 0.798657
71 1 0.967914 0.9698 0.993006
220 1 0.818711 0.920526 0.94765
12 1 0.811924 0.761945 0.928985
157 1 0.735375 0.953359 0.755839
ITEM: TIMESTEP
200000
ITEM: NUMBER OF ATOMS
360
ITEM: BOX BOUNDS pp pp pp
0.0000000000000000e+00 6.6943295008216896e+00
0.0000000000000000e+00 6.6943295008216896e+00
0.0000000000000000e+00 6.6943295008216896e+00
ITEM: ATOMS id type xs ys zs
38 1 0.199067 0.110422 0.23696
125 1 0.0673659 0.237167 0.0258703
234 1 0.0352228 0.116942 0.139405
197 1 0.233233 0.209118 0.0130955
325 2 0.152788 0.17109 0.112905
287 1 0.305782 0.101029 0.116409
69 1 0.106915 0.0806496 0.00402974
312 2 0.263285 -0.00493828 0.185766
291 2 0.321723 0.143367 0.237151
80 1 0.149237 0.00958962 0.133588
267 1 0.251933 0.249601 0.166212
190 1 0.0141588 0.0987394 0.428365
165 1 0.0966588 0.185104 0.339533
96 1 0.298206 0.169866 0.37463
229 1 0.17512 0.0329082 0.407862
352 2 0.0199768 0.232476 0.429187
284 1 0.30336 0.0183973 0.312067
283 1 0.0389816 0.0341621 0.287461
26 1 0.146825 0.176544 0.481609
313 2 0.194751 0.236268 0.291077
167 1 0.00765257 0.221434 0.569487
143 1 0.0840169 0.0719852 0.582282
51 1 0.22435 0.0969718 0.701577
28 1 0.136802 0.21423 0.636046
31 1 0.292206 0.248461 0.524026
158 1 0.277563 0.0997149 0.511359
286 1 0.30424 0.251031 0.676756
94 1 0.287275 0.154077 0.83821
8 1 0.130965 0.174189 0.878542
103 1 0.191908 0.00943224 0.835938
77 1 0.275945 0.0627744 0.956413
16 1 0.0246589 0.0252005 0.883478
304 2 0.0168486 0.157041 0.932981
161 1 0.076869 0.0957817 0.755771
85 1 0.0275249 0.421727 0.229784
19 1 0.219227 0.419078 0.0859964
145 1 0.0327851 0.376077 0.0804098
324 2 0.17001 0.31055 0.0891021
42 1 0.185801 0.376217 0.234179
236 1 0.0887985 0.260854 0.192243
124 1 0.214597 0.31178 0.392688
176 1 0.308596 0.453254 0.327547
280 1 0.157101 0.449926 0.375653
246 1 0.06001 0.332584 0.364793
331 2 0.0554847 0.436137 0.475029
148 1 0.177389 0.368425 0.655998
99 1 0.225419 0.454381 0.53981
289 2 0.271044 0.467107 0.672632
92 1 0.113123 0.326897 0.517148
107 1 0.171219 0.34044 0.93945
27 1 0.0982728 0.409034 0.808876
129 1 0.315052 0.295832 0.89966
146 1 0.247226 0.426178 0.801347
138 1 0.199963 0.276167 0.786832
275 1 0.072337 0.457507 0.961426
114 1 0.0319744 0.296759 0.899752
323 2 0.281206 0.398804 0.978986
310 2 0.00727029 0.495593 0.857828
9 1 0.0371902 0.256422 0.753197
134 1 0.141411 0.675366 0.147906
147 1 0.234107 0.569156 0.0741458
187 1 0.241337 0.519775 0.207685
164 1 0.287956 0.732569 0.133006
354 2 0.200936 0.705181 0.0391095
257 1 0.100476 0.524347 0.124733
355 2 0.219227 0.648695 0.259701
100 1 0.26359 0.600963 0.363196
6 1 0.11249 0.571253 0.447282
179 1 0.156498 0.711566 0.385733
297 2 0.0833403 0.678168 0.269812
173 1 0.00255937 0.67873 0.380525
113 1 0.109597 0.559698 0.28201
293 2 0.248219 0.576479 0.484277
127 1 0.0493315 0.691962 0.698255
63 1 0.157456 0.651305 0.596347
58 1 0.00945851 0.516283 0.731432
227 1 0.299252 0.584518 0.621024
211 1 0.165324 0.534447 0.706804
74 1 0.00633764 0.646498 0.550069
299 2 0.261608 0.704063 0.64079
90 1 0.0841553 0.49886 0.584447
98 1 0.206773 0.687286 0.751958
152 1 0.0990519 0.612509 0.994688
266 1 0.226292 0.669006 0.920639
15 1 0.271468 0.575128 0.812549
205 1 0.107509 0.563497 0.84397
333 2 0.314552 0.58143 0.93593
232 1 0.0853337 0.721748 0.861109
20 1 0.329332 0.752774 0.85101
11 1 0.217621 0.494741 0.944208
123 1 0.0411513 0.916809 0.183056
97 1 0.17801 0.863531 0.10734
102 1 0.301725 0.877575 0.20129
294 2 0.0726027 0.777282 0.126441
250 1 0.0425282 0.949125 0.0215495
245 1 0.159726 0.787192 0.245714
43 1 0.311904 0.956681 0.0528072
222 1 0.192191 0.885771 0.438873
156 1 0.0481226 0.828514 0.35279
351 2 0.281427 0.888716 0.354511
106 1 0.337144 0.955405 0.446916
258 1 0.319847 0.767517 0.330251
345 2 0.0636972 0.963856 0.379277
128 1 0.165507 0.947329 0.269662
279 1 0.198957 0.81594 0.630011
65 1 0.0347042 0.841787 0.648604
292 2 0.251685 0.932806 0.676569
7 1 0.203024 0.977965 0.569378
327 2 0.300753 0.871363 0.548108
140 1 0.12181 0.958618 0.698163
13 1 0.0649772 0.9255 0.515051
281 1 0.0980804 0.774678 0.515787
56 1 0.256484 0.751788 0.505019
160 1 0.1858 0.94963 0.983263
149 1 0.268097 0.814378 0.997181
101 1 0.234973 0.864567 0.785563
57 1 0.0769742 0.893103 0.852669
290 2 0.192195 0.789761 0.864663
64 1 0.334887 1.00411 0.761482
202 1 0.0924511 0.8035 0.999594
328 2 0.11091 0.818341 0.751718
119 1 0.478037 0.10521 0.0830617
214 1 0.598214 0.0864973 0.197908
170 1 0.641338 0.136438 0.0649444
332 2 0.557033 0.188513 0.140618
54 1 0.408955 0.228799 0.164875
318 2 0.38504 0.0532962 0.00964717
150 1 0.533381 0.253194 0.0262147
228 1 0.439682 0.0963019 0.245026
24 1 0.566633 0.111926 0.363515
249 1 0.435145 0.0443894 0.398621
330 2 0.543196 0.0826721 0.490826
268 1 0.451405 0.219707 0.412601
274 1 0.52557 0.23841 0.277147
29 1 0.459821 0.081267 0.712255
109 1 0.52243 0.013517 0.587833
73 1 0.42972 0.129987 0.545262
356 2 0.546962 0.14476 0.655028
360 2 0.346408 0.12909 0.722194
225 1 0.580977 0.188668 0.543676
10 1 0.456048 0.247075 0.664228
48 1 0.349416 0.0154707 0.616095
230 1 0.660112 0.0441025 0.527307
157 1 0.658748 0.0945266 0.658345
79 1 0.406019 0.188893 0.965912
253 1 0.454106 0.206893 0.815595
105 1 0.415386 0.0598923 0.871984
215 1 0.598668 0.180563 0.771553
68 1 0.556433 0.116741 0.935367
343 2 0.548362 0.0593192 0.814394
339 2 0.568693 0.23858 0.884506
30 1 0.57449 0.496175 0.222555
335 2 0.60959 0.429564 0.111885
110 1 0.499615 0.371406 0.134757
248 1 0.644294 0.286369 0.132738
117 1 0.336205 0.380842 0.179066
17 1 0.36405 0.324306 0.0417285
53 1 0.367454 0.490593 0.051385
276 1 0.500551 0.445191 0.00307606
338 2 0.487513 0.381657 0.420822
221 1 0.462619 0.39469 0.288771
142 1 0.569635 0.473049 0.376928
60 1 0.66169 0.359095 0.274125
166 1 0.593314 0.302733 0.416706
208 1 0.360319 0.35014 0.43596
237 1 0.352796 0.279312 0.293787
252 1 0.355521 0.49854 0.469408
84 1 0.476059 0.309716 0.534506
83 1 0.638465 0.430981 0.561468
203 1 0.480625 0.417006 0.663415
59 1 0.336788 0.379823 0.597572
139 1 0.504376 0.477637 0.520914
137 1 0.589086 0.302454 0.656567
216 1 0.631587 0.467367 0.722489
295 2 0.392907 0.496063 0.593529