ITEM: TIMESTEP
0
ITEM: NUMBER OF ATOMS
360
ITEM: BOX BOUNDS pp pp pp
0.0000000000000000e+00 6.6943295008216896e+00
0.0000000000000000e+00 6.6943295008216896e+00
0.0000000000000000e+00 6.6943295008216896e+00
ITEM: ATOMS id type xs ys zs
92 1 0.246951 0.115059 0.0958593
264 1 0.139614 0.141535 0.197807
335 2 0.137486 0.0436511 0.0939009
141 1 0.273165 0.219273 0.212558
271 1 0.0307375 0.043716 0.00526818
203 1 0.248721 0.0420378 0.243545
208 1 0.0145667 0.146096 0.115777
321 2 0.106679 0.233932 0.107233
310 2 0.236743 0.0647819 0.42352
160 1 0.124945 0.0383849 0.342233
284 1 0.221232 0.16188 0.355809
331 2 0.034627 0.0936909 0.419425
185 1 0.0772546 0.205222 0.359901
348 2 0.236118 0.0823699 0.604703
224 1 0.314709 0.179404 0.649856
117 1 0.164743 0.204154 0.628589
84 1 0.0761303 0.0902013 0.693003
128 1 0.0179939 0.233905 0.597178
116 1 0.140789 0.111235 0.511374
145 1 0.295595 0.159876 0.500378
343 2 0.04884 0.24305 0.906218
129 1 0.271459 0.134175 0.933819
168 1 0.0167022 0.12071 0.870973
78 1 0.211409 0.133629 0.773187
337 2 0.151803 0.117285 0.875767
336 2 0.264989 0.00111404 0.857648
8 1 0.0643895 0.217661 0.767823
28 1 0.167535 0.018986 0.956024
53 1 0.13146 0.157086 0.997502
112 1 0.183591 0.323706 0.162359
47 1 0.253348 0.468928 0.177436
155 1 0.0853391 0.32329 0.00764908
98 1 0.0653755 0.424649 0.122859
178 1 0.198324 0.412633 0.0228744
143 1 0.248501 0.276412 0.0352452
194 1 0.0480958 0.281907 0.2244
352 2 0.141315 0.437185 0.230611
80 1 0.25313 0.351196 0.294126
180 1 0.0200674 0.480416 0.289913
302 2 0.267129 0.268862 0.398925
222 1 0.100511 0.350931 0.342242
48 1 0.212592 0.389856 0.436137
233 1 0.15042 0.261426 0.489605
323 2 0.0953837 0.454314 0.398443
314 2 0.164626 0.254521 0.2789
298 2 0.222451 0.457661 0.574827
211 1 0.0730799 0.352684 0.680999
213 1 0.222372 0.345774 0.646095
59 1 0.303193 0.303826 0.532135
3 1 0.0851743 0.395786 0.52592
29 1 0.221058 0.497532 0.686401
358 2 0.172695 0.271718 0.7461
176 1 0.181601 0.39136 0.806755
210 1 0.0846036 0.494795 0.767164
344 2 0.22306 0.456171 0.905545
234 1 0.299181 0.267912 0.793101
156 1 0.100557 0.461987 0.929314
135 1 0.0326588 0.354796 0.846377
97 1 0.183466 0.261822 0.890919
57 1 0.304102 0.362895 0.918089
34 1 0.121344 0.573296 0.206108
5 1 0.0567542 0.566444 0.0393361
319 2 0.308916 0.569084 0.0164772
19 1 0.0863334 0.721584 0.130357
154 1 0.236338 0.624422 0.116925
277 1 0.313815 0.747257 0.15209
307 2 0.168723 0.514679 0.083847
149 1 0.302693 0.610304 0.240658
172 1 0.328074 0.700743 0.00381058
186 1 0.172061 0.705568 0.25368
64 1 0.241364 0.673183 0.399992
94 1 0.0921488 0.603599 0.382639
253 1 0.204469 0.508429 0.330861
179 1 0.182546 0.551673 0.492154
275 1 0.0152803 0.735264 0.278827
225 1 0.329237 0.512303 0.450642
21 1 0.10713 0.747718 0.425893
167 1 0.0759915 0.524941 0.619668
173 1 0.16484 0.701839 0.562344
318 2 0.149788 0.614684 0.650984
260 1 0.245066 0.6862 0.709617
279 1 0.299411 0.606023 0.597702
147 1 0.0225094 0.638327 0.532732
56 1 0.215351 0.565686 0.813835
354 2 0.27473 0.627969 0.908005
11 1 0.0668208 0.6045 0.879281
229 1 0.186499 0.574669 0.973102
251 1 0.206104 0.728788 0.880502
329 2 0.121175 0.689582 0.996427
27 1 0.0830407 0.698352 0.757236
124 1 0.166391 0.844704 0.184209
96 1 0.202899 0.771581 0.0449854
103 1 0.239939 0.953505 0.0967313
357 2 0.327803 0.84635 0.078316
50 1 0.0901359 0.920405 0.0711582
192 1 0.316311 0.890548 0.229168
101 1 0.0970857 0.984475 0.202184
23 1 0.107376 0.884064 0.328694
300 2 0.230205 0.797376 0.346442
63 1 0.0647245 0.958497 0.463763
195 1 0.24488 0.928089 0.367496
43 1 0.3195 0.79733 0.447548
292 2 0.00655024 0.979202 0.343678
287 1 0.198257 0.859082 0.517902
162 1 0.171535 0.824548 0.672455
341 2 0.267506 0.920133 0.630998
82 1 0.0662511 0.805215 0.561379
113 1 0.0364499 0.913197 0.690646
111 1 0.308064 0.807981 0.617207
171 1 0.129929 0.98192 0.593569
283 1 0.274451 0.991407 0.517568
132 1 0.243151 0.991965 0.726881
312 2 0.0639509 0.946184 0.926123
259 1 0.221488 0.880412 0.925737
204 1 0.0952058 0.84407 0.818229
42 1 0.0732011 0.806381 0.971047
7 1 0.287622 0.851074 0.780107
263 1 0.102693 0.995287 0.813809
308 2 0.525591 0.0104106 0.0157956
190 1 0.381059 0.164562 0.0445792
226 1 0.526372 0.0872843 0.125202
22 1 0.661293 0.0811129 0.20325
265 1 0.384062 0.0658361 0.167335
134 1 0.422279 0.216897 0.198814
33 1 0.560007 0.200658 0.0194588
209 1 0.360301 0.0366899 0.354466
106 1 0.395382 0.201826 0.397764
76 1 0.493817 0.0939638 0.30049
333 2 0.634647 0.175158 0.276501
206 1 0.538741 0.142812 0.448208
346 2 0.358025 0.141112 0.282605
230 1 0.425828 0.0627053 0.494799
31 1 0.647013 0.0676086 0.34933
164 1 0.532051 0.249131 0.318703
88 1 0.422491 0.225651 0.556519
99 1 0.479838 0.207208 0.693327
44 1 0.388558 0.0518775 0.642639
68 1 0.611733 0.128193 0.621228
327 2 0.491506 0.126074 0.583154
216 1 0.651826 0.104928 0.788357
243 1 0.447198 0.0889133 0.927855
102 1 0.538005 0.193896 0.843626
109 1 0.596032 0.019101 0.90039
244 1 0.505114 0.0402303 0.770535
262 1 0.367391 0.120829 0.796616
305 2 0.653172 0.234602 0.793904
228 1 0.577453 0.259898 0.169132
118 1 0.339481 0.347105 0.162933
290 2 0.381339 0.472741 0.17706
14 1 0.466942 0.317122 0.0765411
273 1 0.350727 0.435875 0.0472266
309 2 0.577965 0.375329 0.0527374
15 1 0.482565 0.467394 0.0937781
110 1 0.627424 0.402661 0.185891
220 1 0.494404 0.470406 0.398447
79 1 0.366856 0.354612 0.391798
313 2 0.516303 0.266928 0.462118
347 2 0.583753 0.385532 0.323589
199 1 0.35854 0.482643 0.308592
268 1 0.61974 0.354183 0.439964
349 2 0.408905 0.302145 0.28377
193 1 0.487639 0.402499 0.252875
261 1 0.342827 0.45677 0.603748
223 1 0.377962 0.319656 0.67818
304 2 0.49388 0.314965 0.624366
170 1 0.48881 0.442636 0.692755
165 1 0.451829 0.371928 0.518082
32 1 0.578625 0.4601 0.559815
227 1 0.588593 0.311608 0.721938
86 1 0.600559 0.279221 0.566987
13 1 0.593499 0.43499 0.808272
274 1 0.510291 0.395043 0.936992
301 2 0.45 0.444692 0.83042
240 1 0.636063 0.317264 0.890734
61 1 0.459367 0.322539 0.805114
16 1 0.396802 0.250605 0.92513
239 1 0.335406 0.429656 0.771477
138 1 0.603269 0.496583 0.99744
175 1 0.492893 0.551827 0.246677
282 1 0.396154 0.603056 0.12922
85 1 0.547881 0.681023 0.107401
355 2 0.66473 0.701857 0.106399
58 1 0.648008 0.552683 0.132266
339 2 0.423731 0.67813 0.216804
235 1 0.401974 0.619967 0.349654
30 1 0.533351 0.621269 0.443719
142 1 0.538005 0.694168 0.275712
148 1 0.654954 0.702613 0.377988
218 1 0.631643 0.534299 0.282521
254 1 0.657498 0.536855 0.447091
242 1 0.465646 0.554563 0.586897
125 1 0.413472 0.687041 0.666561
126 1 0.570277 0.566039 0.708961
51 1 0.554864 0.676552 0.598646
105 1 0.389989 0.550193 0.723209
212 1 0.406885 0.682173 0.506888
77 1 0.508142 0.587958 0.843833
267 1 0.347575 0.524896 0.896497
108 1 0.626144 0.659526 0.97419
207 1 0.590607 0.699574 0.779563
123 1 0.462041 0.582936 0.997948
133 1 0.49354 0.740899 0.902292
166 1 0.367047 0.657129 0.826053
152 1 0.619832 0.799261 0.170471
280 1 0.434269 0.929964 0.0950626
306 2 0.532249 0.852561 0.0922058
215 1 0.462131 0.807998 0.1964
39 1 0.580545 0.940466 0.167607
163 1 0.649328 0.971953 0.0368026
38 1 0.444409 0.780624 0.0545284
65 1 0.623998 0.812109 0.0186684
303 2 0.524107 0.880862 0.463897
217 1 0.580375 0.850076 0.306756
1 1 0.449292 0.952549 0.267027
35 1 0.535641 0.993976 0.404589
95 1 0.401561 0.922285 0.435504
189 1 0.358315 0.755032 0.29602
140 1 0.588016 0.77639 0.495118
146 1 0.46933 0.776829 0.39998
81 1 0.66149 0.9084 0.419766
322 2 0.579498 0.983853 0.280789
258 1 0.4428 0.922515 0.682592
2 1 0.638926 0.977196 0.69887
249 1 0.568551 0.829755 0.666737
54 1 0.438408 0.829207 0.548293
197 1 0.538542 0.974479 0.566022
330 2 0.409773 0.946875 0.561677
232 1 0.430456 0.79898 0.761514
293 2 0.61831 0.79238 0.887715
4 1 0.502016 0.892179 0.956084
153 1 0.561094 0.894149 0.812299
100 1 0.386976 0.967216 0.825113
161 1 0.356419 0.827547 0.947144
104 1 0.341866 0.98963 0.984679
120 1 0.735501 0.213425 0.160829
257 1 0.686217 0.111593 0.0548041
196 1 0.785325 0.0219065 0.134502
89 1 0.944249 0.00741693 0.133353
74 1 0.871121 0.153864 0.153
181 1 0.80279 0.19156 0.0045349
188 1 0.994583 0.0865364 0.271816
359 2 0.755506 0.00510961 0.364227
72 1 0.796763 0.128459 0.450829
353 2 0.877578 0.113642 0.330413
205 1 0.941886 0.185544 0.455889
52 1 0.763656 0.152647 0.301105
202 1 0.674532 0.206922 0.41455
281 1 0.920169 0.234804 0.281402
272 1 0.916486 0.0345098 0.431779
252 1 0.762561 0.0856634 0.651081
250 1 0.713349 0.234681 0.670267
356 2 0.872878 0.0839942 0.55935
150 1 0.919585 0.142499 0.724206
17 1 0.873843 0.20999 0.593601
360 2 0.728276 0.162287 0.549166
245 1 0.99432 0.0772215 0.566246
315 2 0.827885 0.249864 0.732684
62 1 0.669339 0.0516823 0.50172
295 2 0.988813 0.0539451 0.772098
18 1 0.680517 0.174845 0.918368
41 1 0.751985 0.0201004 0.917653
183 1 0.94423 0.222789 0.967953
127 1 0.825175 0.193536 0.842487
158 1 0.870114 0.0519714 0.82919
332 2 0.942132 0.235777 0.838268
93 1 0.882243 0.0515054 0.988481
75 1 0.776892 0.479482 0.0658525
270 1 0.961041 0.302658 0.105997
214 1 0.777229 0.370175 0.173791
67 1 0.914957 0.448191 0.147932
320 2 0.724289 0.481898 0.197705
24 1 0.696339 0.294685 0.0425594
266 1 0.839129 0.336862 0.0183181
299 2 0.835275 0.269374 0.115085
328 2 0.814738 0.287075 0.248077
107 1 0.847352 0.444824 0.414968
26 1 0.987926 0.321036 0.433042
137 1 0.804127 0.303378 0.376371
269 1 0.718581 0.428964 0.330474
20 1 0.904718 0.381715 0.287731
324 2 0.87351 0.314148 0.477819
49 1 0.682846 0.297434 0.286503
219 1 0.996547 0.499674 0.441256
248 1 0.737044 0.417629 0.528001
66 1 0.815037 0.361147 0.660838
83 1 0.948622 0.401097 0.556153
10 1 0.682848 0.446764 0.683521
285 1 0.764365 0.271234 0.514574
247 1 0.942437 0.306379 0.725328
121 1 0.950888 0.464808 0.708005
342 2 0.842631 0.445146 0.946215
25 1 0.724288 0.438645 0.906931
297 2 0.758579 0.303301 0.919389
241 1 0.864233 0.343875 0.864142
136 1 0.820527 0.469246 0.784552
278 1 0.736362 0.34179 0.783638
191 1 0.955104 0.494353 0.871357
238 1 0.970393 0.418673 0.995629
334 2 0.864944 0.715838 0.0839864
187 1 0.815702 0.564966 0.182662
231 1 0.897042 0.549592 0.0390343
177 1 0.970789 0.608304 0.163056
69 1 0.858784 0.713756 0.211273
90 1 0.764966 0.634232 0.0567447
237 1 0.689655 0.669939 0.228972
46 1 0.989766 0.694841 0.0141907
316 2 0.987953 0.682646 0.393285
246 1 0.934114 0.600599 0.312947
60 1 0.891274 0.598962 0.463842
184 1 0.854214 0.722848 0.363132
296 2 0.674655 0.662756 0.49875
326 2 0.860738 0.501545 0.286649
169 1 0.782077 0.583052 0.337999
340 2 0.962514 0.519421 0.56922
139 1 0.745662 0.606191 0.72447
276 1 0.805879 0.664257 0.57207
159 1 0.941775 0.612326 0.666566
6 1 0.821894 0.518022 0.616999
131 1 0.691865 0.748865 0.617234
294 2 0.815102 0.735268 0.672113
115 1 0.67938 0.574035 0.59483
255 1 0.922006 0.746412 0.509637
311 2 0.772155 0.554126 0.514059
291 2 0.703536 0.552937 0.973962
45 1 0.738511 0.710006 0.852559
55 1 0.806937 0.580012 0.91318
338 2 0.729627 0.745748 0.97872
144 1 0.881626 0.650374 0.788039
350 2 0.934046 0.619018 0.930841
286 1 0.672461 0.577093 0.847082
288 1 0.971988 0.74244 0.861909
114 1 0.801221 0.918074 0.0229166
151 1 0.75141 0.78166 0.101952
317 2 0.720412 0.912462 0.138581
9 1 0.837383 0.888184 0.170268
71 1 0.964862 0.819349 0.103196
200 1 0.980948 0.909529 0.244919
201 1 0.744974 0.806389 0.295445
37 1 0.75634 0.789865 0.484297
40 1 0.980557 0.835793 0.396168
87 1 0.838195 0.886832 0.405679
351 2 0.893147 0.823311 0.28657
119 1 0.707661 0.944555 0.269326
182 1 0.851333 0.992507 0.276868
198 1 0.815938 0.851017 0.648651
256 1 0.950552 0.754519 0.682346
73 1 0.801051 0.97744 0.526488
12 1 0.939207 0.914129 0.541199
289 2 0.747583 0.964362 0.640611
70 1 0.66881 0.895092 0.564884
130 1 0.904985 0.993044 0.67725
174 1 0.844864 0.812542 0.798255
122 1 0.724258 0.857682 0.910731
325 2 0.685018 0.949228 0.833027
236 1 0.952176 0.916479 0.990676
221 1 0.781756 0.950025 0.762396
345 2 0.854502 0.922618 0.898016
91 1 0.955691 0.918727 0.829072
157 1 0.695091 0.8308 0.762963
36 1 0.85352 0.780752 0.962856
ITEM: TIMESTEP
70000
ITEM: NUMBER OF ATOMS
360
ITEM: BOX BOUNDS pp pp pp
0.0000000000000000e+00 6.6943295008216896e+00
0.0000000000000000e+00 6.6943295008216896e+00
0.0000000000000000e+00 6.6943295008216896e+00
ITEM: ATOMS id type xs ys zs
98 1 0.0529519 0.243485 0.230094
264 1 0.0406978 0.0641259 0.118539
203 1 0.31757 0.181362 0.0240146
178 1 0.200829 0.116135 0.126931
190 1 0.307545 0.196911 0.188529
53 1 0.100478 0.186092 0.0433162
145 1 0.114149 0.104859 0.245974
343 2 0.0941872 0.179693 0.356318
106 1 0.213008 0.113706 0.398548
94 1 0.0722774 0.0602247 0.395096
265 1 0.263421 0.0464284 0.267125
92 1 0.21026 0.224047 0.291669
272 1 0.198653 0.0990058 0.554309
113 1 0.0518248 0.0796576 0.559649
130 1 0.0360433 0.136191 0.703473
280 1 0.217775 0.074699 0.701014
329 2 0.141976 0.166046 0.642212
128 1 0.118692 0.224725 0.519175
117 1 0.237302 0.242608 0.62743
161 1 0.292155 0.0578647 0.858716
33 1 0.194076 0.160028 0.911214
224 1 0.116403 0.0695456 0.815966
293 2 0.320035 0.22021 0.906399
331 2 0.270138 0.155561 0.784857
171 1 0.151996 0.206244 0.758569
28 1 0.113032 0.0522321 0.975614
127 1 0.0332605 0.186893 0.887623
270 1 0.157593 0.356719 0.222579
143 1 0.207634 0.267832 0.1025
67 1 0.0165362 0.338101 0.108073
352 2 0.25691 0.378299 0.144874
97 1 0.115163 0.387439 0.0106639
156 1 0.0363419 0.488529 0.141923
56 1 0.302535 0.440843 0.00385473
34 1 0.193759 0.479048 0.111647
194 1 0.108008 0.3162 0.366637
246 1 0.0714359 0.458142 0.287777
26 1 0.187712 0.453868 0.407455
80 1 0.228798 0.271518 0.438324
321 2 0.227994 0.345572 0.329107
20 1 0.246924 0.472968 0.266128
340 2 0.036061 0.429163 0.421665
112 1 0.319589 0.339301 0.250109
48 1 0.217787 0.386673 0.546765
330 2 0.143427 0.491706 0.540003
84 1 0.00883475 0.282422 0.734023
295 2 0.109381 0.294001 0.646334
167 1 0.0674524 0.457019 0.65896
205 1 0.0691659 0.370949 0.531422
3 1 0.180171 0.36532 0.736594
193 1 0.320745 0.421073 0.673854
78 1 0.0921781 0.344468 0.860611
211 1 0.230328 0.300563 0.944223
342 2 0.05742 0.280357 0.961926
213 1 0.29118 0.282781 0.79156
279 1 0.271015 0.445363 0.840091
334 2 0.0720046 0.728689 0.0668164
15 1 0.00443595 0.61824 0.0400936
354 2 0.0884663 0.517758 0.0308991
177 1 0.128722 0.633723 0.148135
19 1 0.171566 0.675949 0.00666771
319 2 0.236491 0.700743 0.229803
267 1 0.282708 0.589595 0.0923312
355 2 0.139386 0.532696 0.219725
147 1 0.0762009 0.550345 0.419036
199 1 0.197193 0.604673 0.319909
287 1 0.326654 0.547086 0.390695
253 1 0.119635 0.716399 0.268354
64 1 0.251264 0.747166 0.358018
180 1 0.0286702 0.601165 0.27765
179 1 0.117328 0.708793 0.434993
316 2 0.242564 0.716733 0.49121
111 1 0.208776 0.59518 0.481243
27 1 0.112388 0.656159 0.730734
7 1 0.218413 0.700517 0.620768
210 1 0.0785851 0.597992 0.582726
222 1 0.212337 0.548022 0.644328
350 2 0.113276 0.732128 0.557179
288 1 -0.0016634 0.73531 0.626176
212 1 0.273299 0.606317 0.787489
11 1 0.0644883 0.624912 0.894254
323 2 0.203718 0.646799 0.878662
247 1 0.137796 0.503161 0.796627
239 1 0.306924 0.612288 0.943186
176 1 0.179319 0.526073 0.954767
189 1 0.200702 0.860588 0.0187396
103 1 0.102811 0.816271 0.146957
263 1 0.0674374 0.904483 0.00463635
104 1 0.186131 0.96671 0.13531
186 1 0.251984 0.754687 0.122006
101 1 0.0362808 0.943131 0.225838
192 1 0.2677 1.00342 0.00358924
87 1 0.058623 0.909639 0.377056
95 1 0.346263 0.893505 0.347452
23 1 0.202267 0.963782 0.383567
160 1 0.20774 0.856259 0.251662
318 2 0.151901 0.821316 0.366889
292 2 0.0544957 0.822601 0.261876
360 2 0.154674 0.972348 0.270712
63 1 0.0445738 0.820319 0.500571
336 2 0.227429 0.951436 0.629907
102 1 0.298117 0.828397 0.625699
100 1 0.133446 0.830238 0.631985
332 2 0.0137831 0.918809 0.602731
132 1 0.0894567 0.966879 0.696423
283 1 0.123377 0.954725 0.533169
166 1 0.23194 0.911727 0.753294
44 1 0.287867 0.982136 0.512464
21 1 0.207873 0.843979 0.492146
96 1 0.172152 0.941215 0.888647
231 1 0.0498046 0.764594 0.942807
204 1 0.108436 0.825886 0.807728
42 1 0.22265 0.781155 0.905232
259 1 0.327914 0.877276 0.92513
29 1 0.228833 0.762122 0.755011
24 1 0.627352 0.0484295 0.204332
134 1 0.597307 0.21167 0.152121
226 1 0.508179 0.0796294 0.126125
18 1 0.65318 0.111072 0.0528562
195 1 0.355735 0.058357 0.118248
337 2 0.405482 0.190748 0.113344
13 1 0.492044 0.221467 0.0345729
314 2 0.383939 0.11037 0.23298
206 1 0.489666 0.0960965 0.440231
164 1 0.494379 0.0718602 0.280557
304 2 0.54769 0.00351202 0.517802
209 1 0.36882 0.0463553 0.371646
59 1 0.352734 0.220997 0.350346
308 2 0.605164 0.0820747 0.36661
268 1 0.530977 0.23157 0.37201
233 1 0.339569 0.150975 0.492397
223 1 0.48656 0.110052 0.707752
2 1 0.627818 0.0388284 0.601699
88 1 0.439319 0.0525327 0.576215
216 1 0.598878 0.199042 0.678224
165 1 0.467402 0.21254 0.547831
278 1 0.336489 0.136637 0.650579
125 1 0.418676 0.253822 0.703068
202 1 0.611736 0.157416 0.507658
297 2 0.374871 0.056876 0.750978
221 1 0.551901 0.102671 0.900667
356 2 0.611593 0.171912 0.796445
16 1 0.40999 0.169888 0.840069
243 1 0.409824 0.0706414 0.971826
227 1 0.606757 0.0561064 0.764501
170 1 0.53923 0.254733 0.856002
305 2 0.635092 0.0157218 0.895409
290 2 0.447426 0.371149 0.181474
273 1 0.361638 0.328413 0.0878307
14 1 0.577666 0.349205 0.219652
25 1 0.624176 0.39135 0.0681053
346 2 0.528944 0.322213 0.10458
274 1 0.470225 0.440331 0.0551155
47 1 0.352055 0.471014 0.156409
282 1 0.478774 0.493424 0.221725
141 1 0.454529 0.241099 0.218694
79 1 0.452794 0.352068 0.326263
302 2 0.405339 0.282846 0.445068
349 2 0.559354 0.376406 0.37752
218 1 0.602641 0.453243 0.471941
220 1 0.492965 0.354827 0.480103
298 2 0.369515 0.458737 0.283385
118 1 0.473008 0.487943 0.391661
284 1 0.334793 0.393919 0.410119
115 1 0.472338 0.392405 0.623605
261 1 0.346346 0.311395 0.56213
254 1 0.58298 0.334174 0.733179
66 1 0.637478 0.451226 0.634864
86 1 0.611506 0.313447 0.568519
225 1 0.351998 0.480419 0.543456
126 1 0.52931 0.495106 0.750069
57 1 0.381899 0.337758 0.927284
344 2 0.395034 0.476407 0.785928
309 2 0.602356 0.421908 0.817396
10 1 0.54611 0.398198 0.927864
105 1 0.43521 0.362564 0.790489
61 1 0.639043 0.252837 0.97407
108 1 0.491583 0.651963 0.233524
291 2 0.567949 0.656604 0.133846
133 1 0.59338 0.71423 0.0236356
77 1 0.459886 0.617811 0.0785748
300 2 0.356538 0.677274 0.134911
301 2 0.384864 0.538302 0.0164562
138 1 0.613942 0.542397 0.163521
149 1 0.335729 0.604794 0.239314
347 2 0.443271 0.572698 0.482856
269 1 0.587569 0.546098 0.327407
30 1 0.565338 0.642623 0.463046
124 1 0.416789 0.665253 0.373908
303 2 0.564878 0.683111 0.34396
311 2 0.641682 0.737015 0.455508
235 1 0.485231 0.719939 0.571472
51 1 0.509451 0.545454 0.58587
140 1 0.623332 0.610342 0.683631
35 1 0.640566 0.717428 0.579755
242 1 0.387748 0.561185 0.678232
54 1 0.342065 0.643176 0.544172
260 1 0.378791 0.710416 0.697802
173 1 0.491038 0.645446 0.770119
122 1 0.610217 0.714751 0.858831
341 2 0.532972 0.561531 0.867999
207 1 0.460615 0.654059 0.927298
251 1 0.357722 0.736563 0.847131
240 1 0.565016 0.535758 0.986895
338 2 0.652291 0.626905 0.956975
286 1 0.65973 0.536241 0.821283
234 1 0.416927 0.513659 0.893009
215 1 0.585216 0.788068 0.168975
357 2 0.547039 0.852557 0.0546273
39 1 0.514142 0.93206 0.169796
38 1 0.433232 0.941379 0.0437532
237 1 0.656099 0.906691 0.100692
154 1 0.442075 0.776421 0.115001
306 2 0.669116 0.934905 0.241523
172 1 0.354571 0.746391 -0.000798238
1 1 0.351721 0.905558 0.169443
229 1 0.348085 0.763278 0.250661
76 1 0.578716 0.938979 0.324506
85 1 0.47851 0.825213 0.28567
152 1 0.642348 0.784 0.3391
230 1 0.462359 0.929366 0.429738
146 1 0.517629 0.781902 0.431713
359 2 0.622034 0.869887 0.438174
43 1 0.353935 0.779387 0.467143
333 2 0.408206 0.971249 0.276166
31 1 0.650072 0.992678 0.448368
258 1 0.42752 0.879358 0.574183
70 1 0.578261 0.881864 0.559702
244 1 0.559079 0.79664 0.683111
68 1 0.490081 0.939317 0.694098
232 1 0.337834 0.973955 0.663242
90 1 0.63945 0.854464 0.952128
249 1 0.479069 0.81617 0.932587
4 1 0.559931 0.918869 0.820635
197 1 0.425803 0.983604 0.850908
322 2 0.468878 0.771823 0.801705
175 1 0.5664 0.983863 0.993371
99 1 0.384888 0.864869 0.759182
119 1 0.792401 0.197497 0.0149574
257 1 0.7483 0.172259 0.160973
182 1 0.883943 0.110618 0.109103
163 1 0.763735 0.0218999 0.135356
326 2 0.846552 0.00705792 0.0272319
335 2 1.00091 0.181336 0.128563
200 1 0.963005 0.117913 0.253344
252 1 0.823721 0.207279 0.335787
12 1 0.877957 0.0717964 0.383765
74 1 0.743029 0.0587595 0.305097
81 1 0.740696 0.118985 0.442272
188 1 0.980493 0.20693 0.420614
310 2 0.976661 0.00705613 0.320215
228 1 0.663422 0.206764 0.28974
40 1 0.872194 0.0970619 0.536409
73 1 0.734569 0.20133 0.592183
157 1 0.770862 0.0165855 0.64067
91 1 0.877983 0.152729 0.687443
109 1 0.736692 0.144624 0.742699
162 1 0.936359 0.0173862 0.643384
116 1 0.970483 0.217961 0.588475
299 2 0.839509 0.0549329 0.756753
181 1 0.846822 0.102902 0.893433
8 1 0.946334 0.0472751 0.97665
238 1 0.948289 0.205196 1.00699
41 1 0.691525 0.130512 0.894462
262 1 0.959468 0.0505172 0.814847
49 1 0.754257 0.337911 0.203237
328 2 0.885683 0.29422 0.0817008
55 1 0.794628 0.352767 0.0206133
353 2 0.99095 0.3762 0.219781
137 1 0.888262 0.4101 0.152764
320 2 0.676362 0.438628 0.200948
120 1 0.746988 0.464058 0.103329
208 1 0.907055 0.261313 0.205958
324 2 0.698789 0.267839 0.0802621
248 1 0.743328 0.410387 0.487065
281 1 0.81213 0.371211 0.354266
285 1 0.910852 0.385149 0.476747
185 1 0.969523 0.339269 0.339783
148 1 0.917216 0.478067 0.300866
72 1 0.826684 0.250987 0.482222
110 1 0.672951 0.408114 0.330586
52 1 0.68899 0.27887 0.41722
245 1 0.789295 0.37467 0.622338
348 2 0.849596 0.264834 0.610352
296 2 0.702657 0.288754 0.675595
250 1 0.941423 0.37294 0.623475
307 2 0.935263 0.4954 0.661644
150 1 0.835393 0.280389 0.736546
155 1 0.835716 0.434017 0.874782
17 1 0.717545 0.398603 0.764809
183 1 0.692597 0.26583 0.823406
135 1 0.941325 0.350349 0.960887
241 1 0.949432 0.41436 0.775324
358 2 0.959467 0.303586 0.849433
32 1 0.696148 0.402545 0.925702
191 1 1.00649 0.492684 0.930377
214 1 0.837162 0.269867 0.890479
275 1 1.0003 0.707871 0.176839
5 1 0.880182 0.497063 0.0183312
187 1 0.821564 0.724378 0.194446
69 1 0.886659 0.586337 0.185258
184 1 0.848701 0.676486 0.0442577
58 1 0.714441 0.611648 0.0767004
142 1 0.670676 0.670513 0.224635
60 1 0.873513 0.637526 0.338878
159 1 0.840424 0.512802 0.42529
169 1 0.706064 0.642915 0.386743
315 2 0.954626 0.562376 0.397496
256 1 0.965857 0.662587 0.484605
107 1 0.760188 0.541793 0.275665
313 2 0.70406 0.520156 0.418123
294 2 0.730195 0.527806 0.671416
174 1 0.783459 0.675698 0.510106
289 2 0.69281 0.739921 0.714412
144 1 0.915758 0.615878 0.623037
139 1 0.769831 0.655946 0.666515
6 1 0.673832 0.575759 0.539244
345 2 0.858955 0.752707 0.587097
266 1 0.837225 0.526281 0.750666
121 1 0.976285 0.512308 0.527528
83 1 0.822629 0.519653 0.576722
46 1 0.97558 0.726781 0.811498
136 1 0.753608 0.65523 0.823349
36 1 0.890207 0.603944 0.899459
351 2 0.942655 0.696811 0.963877
75 1 0.750079 0.552017 0.937269
71 1 0.733637 0.729346 0.956562
114 1 0.998749 0.557415 0.751716
325 2 0.871256 0.657239 0.774756
196 1 0.812835 0.886458 0.0545227
89 1 0.93612 0.949893 0.0991441
151 1 0.928655 0.848076 0.209415
277 1 0.960951 0.792343 0.0615964
123 1 0.712886 0.76355 0.105826
22 1 0.781746 0.875669 0.19318
339 2 0.700122 0.792349 0.23375
62 1 0.868174 0.997902 0.237979
217 1 0.731904 0.906231 0.342893
9 1 0.891333 0.905479 0.353845
255 1 0.8077 0.770421 0.341775
201 1 0.732721 0.829464 0.481072
37 1 0.889961 0.798452 0.464105
82 1 0.964312 0.960552 0.486393
219 1 0.986298 0.74786 0.342625
198 1 0.798243 0.969387 0.492686
131 1 0.879715 0.881158 0.592557
168 1 0.985015 0.854004 0.725549
276 1 0.750078 0.808152 0.626425
327 2 0.700612 0.925719 0.561052
236 1 0.851249 0.776683 0.722238
271 1 0.860011 0.931565 0.748544
153 1 0.663499 0.919269 0.694133
312 2 0.944013 0.912624 0.98126
93 1 0.852604 0.950398 0.905395
45 1 0.728752 0.828863 0.816591
317 2 0.768501 0.859405 0.930161
50 1 0.869801 0.786439 0.902253
158 1 0.729618 0.990063 0.814859
65 1 0.721921 0.975498 0.973954
129 1 0.989699 0.889915 0.866022
ITEM: TIMESTEP
140000
ITEM: NUMBER OF ATOMS
360
ITEM: BOX BOUNDS pp pp pp
0.0000000000000000e+00 6.6943295008216896e+00
0.0000000000000000e+00 6.6943295008216896e+00
0.0000000000000000e+00 6.6943295008216896e+00
ITEM: ATOMS id type xs ys zs
24 1 0.224896 0.0776217 0.0255099
200 1 0.0808473 0.10161 0.0277962
192 1 0.157165 0.145631 0.198922
112 1 0.0727898 0.241141 0.111262
331 2 0.180378 0.18691 0.0628594
312 2 0.122882 0.0377153 0.121044
20 1 0.282396 0.242613 0.118769
321 2 0.0268418 0.115121 0.157617
80 1 0.220502 0.0393801 0.334488
92 1 0.118351 0.154235 0.368055
165 1 0.276983 0.139514 0.440996
190 1 0.320162 0.115504 0.250942
98 1 0.0895778 0.00754032 0.251955
130 1 0.102718 0.224577 0.523428
97 1 0.238892 0.211133 0.579442
278 1 0.165314 0.0817498 0.537886
280 1 0.0638606 0.140197 0.663962
44 1 0.210831 0.0391751 0.672866
351 2 0.0564643 0.0315993 0.743349
236 1 0.00912019 0.102488 0.504498
96 1 0.174115 0.166511 0.91344
33 1 0.195616 0.163462 0.766378
16 1 0.0369694 0.141213 0.831161
158 1 0.298369 0.0754934 0.870303
161 1 0.142737 0.0101223 0.836371
143 1 0.0318362 0.239815 0.94786
323 2 0.282844 0.237956 0.85217
246 1 0.032126 0.391588 0.197802
177 1 0.192354 0.357727 0.166029
228 1 0.231271 0.454501 0.0427233
135 1 0.0918165 0.396552 0.0448637
194 1 0.148199 0.335378 0.426297
59 1 0.0262254 0.38476 0.345998
284 1 0.305412 0.36564 0.400295
272 1 0.256676 0.484263 0.48853
149 1 0.180193 0.427634 0.314894
28 1 0.0759981 0.255248 0.25912
307 2 0.242896 0.280698 0.477838
128 1 0.0988122 0.484235 0.444312
145 1 0.240467 0.254224 0.300655
261 1 0.184616 0.424211 0.744004
3 1 0.193276 0.371808 0.587337
171 1 0.0216273 0.390568 0.673203
223 1 0.270607 0.300706 0.738172
322 2 0.323492 0.322883 0.619529
147 1 0.318119 0.462004 0.649913
48 1 0.123294 0.270612 0.683743
310 2 0.0158866 0.260331 0.631313
203 1 0.281928 0.375603 0.874977
19 1 0.142947 0.444254 0.91342
127 1 0.127636 0.300603 0.83401
350 2 0.0625026 0.420299 0.808189
176 1 0.179586 0.300887 0.986349
103 1 0.156333 0.694221 0.136437
239 1 0.274648 0.627765 0.053205
34 1 0.175395 0.504087 0.188646
15 1 0.0314939 0.580908 0.14451
309 2 0.122403 0.701651 0.00514726
184 1 0.127919 0.56413 0.0127263
328 2 0.0822644 0.656236 0.241613
160 1 0.00835667 0.734194 0.151582
199 1 0.0666677 0.532255 0.289257
188 1 0.293896 0.623724 0.398533
345 2 0.178535 0.555227 0.358064
263 1 0.213172 0.638073 0.271443
210 1 0.0568277 0.653657 0.386808
229 1 0.309011 0.508028 0.292624
270 1 0.17286 0.624777 0.4874
95 1 0.200127 0.749751 0.409486
232 1 0.271143 0.680898 0.637643
111 1 0.11587 0.499562 0.593703
63 1 0.111478 0.649034 0.614835
205 1 0.010348 0.589361 0.516711
357 2 0.212638 0.568815 0.641815
288 1 0.00465227 0.672632 0.752632
78 1 0.08972 0.531884 0.738176
330 2 0.279489 0.710658 0.512934
334 2 0.155655 0.621326 0.8431
168 1 0.0764549 0.705416 0.894367
46 1 0.23106 0.705665 0.921671
222 1 0.160741 0.725546 0.752711
156 1 0.0298364 0.538031 0.900457
11 1 0.261522 0.541827 0.92237
56 1 0.232703 0.573772 0.761191
337 2 0.206089 0.952133 0.0575731
151 1 0.12366 0.89203 0.148999
292 2 -0.00477158 0.869654 0.0988275
265 1 0.260174 0.800291 0.160198
264 1 0.249045 0.997035 0.187019
36 1 0.193587 0.826984 0.0245537
231 1 0.0301555 0.795596 0.00679702
104 1 0.332719 0.905091 0.0885383
332 2 0.155984 0.863869 0.42962
100 1 0.10421 0.773929 0.278404
314 2 0.0878317 0.8963 0.311817
106 1 0.213882 0.880363 0.292692
43 1 0.321968 0.830097 0.437433
283 1 0.251617 0.966694 0.466472
22 1 0.00796656 0.85794 0.417553
355 2 0.250119 0.747364 0.286204
164 1 0.0841423 0.997232 0.417686
260 1 0.215592 0.837228 0.561286
99 1 0.281406 0.800903 0.722388
82 1 0.0656562 0.808543 0.648605
329 2 0.207665 0.96507 0.575746
102 1 0.150253 0.906843 0.707363
179 1 0.0883438 0.921752 0.558891
23 1 0.0864942 0.771995 0.513017
166 1 0.316023 0.928977 0.639057
27 1 0.157862 0.852988 0.870114
315 2 0.0395706 0.883072 0.902331
7 1 0.268358 0.949592 0.779606
336 2 0.0524736 0.783146 0.779142
259 1 0.268769 0.93571 0.943934
225 1 0.330898 0.829072 0.866616
204 1 0.0170553 0.916672 0.766922
129 1 0.0880871 0.95568 0.996049
172 1 0.539664 0.0954321 0.0402643
299 2 0.648279 0.0318307 0.010663
243 1 0.411263 0.140124 0.100163
237 1 0.552124 0.12269 0.201419
38 1 0.393018 0.0272739 0.00713806
52 1 0.438101 0.23331 0.217576
202 1 0.547787 0.222155 0.358419
248 1 0.606683 0.0820298 0.373537
302 2 0.59565 0.140194 0.500771
230 1 0.479626 0.122319 0.466445
268 1 0.38633 0.221425 0.354832
195 1 0.45313 0.0802598 0.314159
297 2 0.380527 0.0431392 0.40464
227 1 0.37117 0.207366 0.667871
88 1 0.500989 0.138841 0.619678
109 1 0.634665 0.220667 0.620409
173 1 0.356445 0.0638143 0.724648
40 1 0.631539 0.0278737 0.672118
125 1 0.530353 0.24263 0.731501
206 1 0.563953 0.014264 0.539866
233 1 0.344955 0.0846143 0.567153
86 1 0.378526 0.23688 0.506177
175 1 0.488545 0.216887 0.983977
333 2 0.540958 0.169135 0.853612
197 1 0.407651 0.182496 0.822293
221 1 0.509453 0.0716267 0.76117
305 2 0.435243 0.0888036 0.904399
244 1 0.6306 0.133049 0.935329
326 2 0.628962 0.0440196 0.821902
13 1 0.340037 0.20271 0.962066
41 1 0.658059 0.158688 0.774387
79 1 0.542672 0.375983 0.00375295
353 2 0.439211 0.265091 0.0914678
267 1 0.503108 0.368688 0.167181
85 1 0.603624 0.471925 0.116766
105 1 0.339063 0.349807 0.0397281
290 2 0.469108 0.464139 0.0869016
298 2 0.555814 0.260484 0.228334
118 1 0.335173 0.370591 0.21633
77 1 0.464679 0.493945 0.241566
90 1 0.587151 0.250555 0.104928
110 1 0.447351 0.369621 0.320273
319 2 0.429792 0.313679 0.427178
313 2 0.604572 0.328598 0.370537
26 1 0.393831 0.495965 0.432774
269 1 0.530277 0.407972 0.441761
134 1 0.587423 0.423573 0.280191
31 1 0.652048 0.495206 0.399926
254 1 0.561306 0.364972 0.632705
117 1 0.416926 0.382313 0.536097
193 1 0.420423 0.348484 0.738261
10 1 0.502091 0.477971 0.727749
304 2 0.472423 0.278786 0.615103
347 2 0.597003 0.488753 0.546627
126 1 0.648986 0.480896 0.690834
115 1 0.537594 0.272631 0.500824
61 1 0.590349 0.280099 0.883816