ITEM: TIMESTEP
0
ITEM: NUMBER OF ATOMS
360
ITEM: BOX BOUNDS pp pp pp
0.0000000000000000e+00 6.6943295008216896e+00
0.0000000000000000e+00 6.6943295008216896e+00
0.0000000000000000e+00 6.6943295008216896e+00
ITEM: ATOMS id type xs ys zs
356 2 0.0190163 0.127936 0.215339
354 2 0.158427 0.21276 0.184967
17 1 0.253937 0.0922683 0.0662225
155 1 0.322661 0.217791 0.173128
143 1 0.0993724 0.0977902 0.125257
64 1 0.0954439 0.233745 0.0287892
98 1 0.231744 0.0992563 0.235684
103 1 0.110643 0.15129 0.30777
351 2 0.182793 0.0536976 0.356385
210 1 0.24652 0.16779 0.375189
69 1 0.0622887 0.0335193 0.409277
245 1 0.101117 0.175496 0.457579
121 1 0.303538 0.00806895 0.344417
13 1 0.22758 0.216281 0.666909
271 1 0.171198 0.0264757 0.649706
266 1 0.0450606 0.0780027 0.564677
197 1 0.0578514 0.117051 0.727121
86 1 0.0840623 0.229327 0.612423
320 2 0.29985 0.105231 0.641676
198 1 0.235521 0.130367 0.537453
159 1 0.0571389 0.215199 0.862731
323 2 0.0439672 0.0891035 0.852706
142 1 0.214236 0.110073 0.774126
178 1 0.178541 0.141133 0.924911
31 1 0.0381999 0.103799 0.972514
345 2 0.251041 0.0333963 0.874248
96 1 0.250526 0.433504 0.00842097
342 2 0.0445471 0.330739 0.104465
212 1 0.0418636 0.422333 0.213301
171 1 0.160688 0.334138 0.150836
174 1 0.076343 0.458651 0.0633362
355 2 0.279554 0.37691 0.131206
274 1 0.248812 0.446551 0.242338
295 2 0.144645 0.480021 0.160794
200 1 0.0368643 0.259301 0.218183
109 1 0.243265 0.277513 0.0266973
249 1 0.11987 0.463006 0.355145
325 2 0.0904063 0.353234 0.297851
228 1 0.315151 0.365058 0.360405
282 1 0.2238 0.443261 0.485734
29 1 0.140167 0.316277 0.408446
238 1 0.269468 0.2832 0.476766
10 1 0.212833 0.283168 0.282379
35 1 0.175821 0.369304 0.610102
56 1 0.0226843 0.372094 0.65054
338 2 0.302368 0.358354 0.585024
199 1 0.307795 0.484398 0.616308
329 2 0.240343 0.452774 0.713116
66 1 0.296038 0.344536 0.721635
275 1 0.0118904 0.319783 0.508254
58 1 0.0655149 0.455185 0.500696
27 1 0.231612 0.44264 0.857095
28 1 0.126968 0.353831 0.93336
190 1 0.00110971 0.360009 0.845699
52 1 0.256289 0.257426 0.852891
270 1 0.10759 0.465841 0.769113
232 1 0.132106 0.304441 0.766193
359 2 0.00907617 0.451993 0.93754
336 2 0.175005 0.687215 0.186635
256 1 0.249877 0.55082 0.124205
8 1 0.248949 0.689952 0.0504182
175 1 0.110855 0.604968 0.109831
291 2 0.205874 0.564833 0.0101694
340 2 0.015011 0.694497 0.106525
122 1 0.0419658 0.68102 0.236813
68 1 0.162293 0.574818 0.249617
218 1 0.0832499 0.609783 0.38148
163 1 0.286893 0.534792 0.373216
307 2 0.212361 0.642483 0.373721
48 1 0.292888 0.721269 0.417651
293 2 0.0391579 0.525208 0.288629
252 1 0.281937 0.664995 0.25129
231 1 0.125856 0.738471 0.469378
23 1 0.223161 0.595269 0.499108
82 1 0.0640102 0.616114 0.550595
153 1 0.152459 0.517117 0.623606
208 1 0.177396 0.706811 0.643394
51 1 0.0763967 0.629957 0.712391
306 2 0.261334 0.595908 0.617405
145 1 0.226294 0.577022 0.736857
273 1 0.320769 0.704509 0.574187
129 1 0.126718 0.515166 0.922889
300 2 0.121634 0.607134 0.833023
100 1 0.252573 0.617837 0.88897
248 1 0.127636 0.663052 0.96531
292 2 0.2127 0.746859 0.925161
81 1 0.318468 0.717334 0.78355
119 1 0.164354 0.735427 0.802245
276 1 0.014625 0.702486 0.846013
135 1 0.0726667 0.841203 0.24592
258 1 0.270446 0.792888 0.159306
47 1 0.165772 0.956806 0.125042
49 1 0.0392439 0.962022 0.0406679
131 1 0.119353 0.770023 0.106594
184 1 0.225577 0.830667 0.0137337
106 1 0.328065 0.934814 0.0928278
309 2 0.28502 0.99467 0.203261
330 2 0.306371 0.786471 0.28681
313 2 0.0420564 0.790662 0.366465
217 1 0.11958 0.881285 0.390743
3 1 0.30176 0.867549 0.38855
215 1 0.173747 0.757424 0.312185
201 1 0.223307 0.898238 0.260345
123 1 0.104171 0.999952 0.262563
205 1 0.204078 0.989531 0.464697
133 1 0.0431126 0.769201 0.602963
172 1 0.0988218 0.930418 0.5511
358 2 0.219354 0.903766 0.637549
225 1 0.113165 0.870547 0.697161
91 1 0.221398 0.834937 0.516487
341 2 0.0370942 0.756691 0.732475
343 2 0.048848 0.98451 0.66173
287 1 0.316925 0.82432 0.680459
102 1 0.30917 0.980618 0.593027
164 1 0.234605 0.865981 0.854383
78 1 0.102751 0.808913 0.921623
229 1 0.180348 0.977725 0.965782
299 2 0.0509711 0.922519 0.907234
240 1 0.117412 0.976659 0.806674
77 1 0.00268883 0.859063 0.805111
75 1 0.28607 0.959598 0.752493
152 1 0.423296 0.167864 0.0605891
278 1 0.38878 0.0683721 0.187672
138 1 0.470632 0.232523 0.205299
92 1 0.554854 0.127374 0.123037
317 2 0.383234 0.0494741 0.0319789
360 2 0.629625 0.0748204 0.0208949
114 1 0.663777 0.0280384 0.142333
236 1 0.590591 0.152902 0.278994
235 1 0.369844 0.0986486 0.456997
264 1 0.384024 0.22845 0.336159
189 1 0.454088 0.0954493 0.323103
41 1 0.57889 0.0265259 0.396788
254 1 0.650989 0.1613 0.441412
318 2 0.335272 0.131543 0.291263
203 1 0.532456 0.242462 0.39226
234 1 0.519093 0.199955 0.675463
50 1 0.422596 0.0763785 0.652373
20 1 0.633954 0.0242572 0.542418
107 1 0.643495 0.162089 0.612146
241 1 0.374966 0.236754 0.608893
46 1 0.56083 0.0590144 0.733944
105 1 0.510317 0.146754 0.529186
80 1 0.522726 0.167822 0.833829
144 1 0.562744 0.18604 0.983433
117 1 0.631769 0.0555277 0.880629
83 1 0.481132 0.0623086 0.952111
30 1 0.413898 0.0390281 0.807678
139 1 0.36214 0.173862 0.75408
302 2 0.436288 0.236447 0.901416
158 1 0.335727 0.1348 0.915111
202 1 0.514018 0.381858 0.118246
224 1 0.382257 0.36046 0.223337
216 1 0.379016 0.320945 0.0665369
289 2 0.493859 0.476095 0.217223
230 1 0.391411 0.492114 0.144612
11 1 0.65041 0.457433 0.142228
250 1 0.640586 0.317183 0.0106795
115 1 0.612403 0.269808 0.159776
294 2 0.517322 0.25952 0.0849714
136 1 0.424647 0.458202 0.0048828
301 2 0.449648 0.359308 0.37589
61 1 0.385526 0.418122 0.493905
193 1 0.547298 0.360634 0.276062
177 1 0.427662 0.47577 0.330628
4 1 0.535516 0.455937 0.451841
332 2 0.408851 0.258827 0.462552
151 1 0.42983 0.381609 0.636575
160 1 0.61632 0.41873 0.565351
327 2 0.532134 0.317083 0.653356
156 1 0.507676 0.303538 0.530894
137 1 0.6564 0.310308 0.669506
183 1 0.55721 0.436775 0.717279
40 1 0.446453 0.300949 0.775357
346 2 0.620509 0.442466 0.84819
347 2 0.341431 0.485844 0.911383
196 1 0.506627 0.328271 0.955122
185 1 0.498398 0.459981 0.857525
246 1 0.365237 0.359458 0.896186
112 1 0.595101 0.310684 0.814391
59 1 0.58989 0.471444 0.98447
154 1 0.37166 0.474867 0.76357
19 1 0.542001 0.708778 0.147079
9 1 0.377676 0.650192 0.131049
191 1 0.508628 0.555073 0.104483
45 1 0.636943 0.613539 0.0445452
180 1 0.643908 0.595016 0.205094
38 1 0.490441 0.67436 0.000553795
25 1 0.473126 0.604258 0.24538
290 2 0.375583 0.639731 0.361322
259 1 0.587413 0.703736 0.314101
12 1 0.495923 0.621593 0.395796
54 1 0.592068 0.500846 0.315247
15 1 0.596858 0.748476 0.453114
314 2 0.345171 0.552289 0.261592
125 1 0.381855 0.572464 0.486749
209 1 0.429541 0.748681 0.252999
166 1 0.467329 0.701343 0.544825
328 2 0.523337 0.636027 0.634001
261 1 0.488789 0.512653 0.584596
76 1 0.380527 0.612852 0.67846
277 1 0.519774 0.583655 0.747796
168 1 0.625335 0.727186 0.613539
146 1 0.592008 0.613818 0.514331
53 1 0.656282 0.553958 0.646528
251 1 0.583938 0.59553 0.884538
70 1 0.400721 0.591044 0.857423
126 1 0.348938 0.727658 0.933579
348 2 0.47463 0.554883 0.959597
311 2 0.650061 0.55114 0.766889
94 1 0.620581 0.712322 0.773155
67 1 0.489883 0.747386 0.863615
37 1 0.349307 0.578379 0.996569
55 1 0.414701 0.798577 0.0877218
101 1 0.479652 0.981648 0.086969
170 1 0.38782 0.903699 0.229276
257 1 0.61647 0.77188 0.0115843
60 1 0.577247 0.872155 0.13194
36 1 0.543793 0.99489 0.236385
357 2 0.523304 0.870335 0.449163
213 1 0.44332 0.935796 0.386097
324 2 0.336137 0.964414 0.459959
188 1 0.549323 0.854012 0.310541
265 1 0.440696 0.768453 0.40503
147 1 0.438855 0.925632 0.679773
182 1 0.579318 0.849925 0.71074
335 2 0.555484 0.969275 0.635146
65 1 0.541041 0.849768 0.56269
42 1 0.38836 0.849919 0.536257
132 1 0.469443 0.982697 0.538884
14 1 0.458834 0.754726 0.711594
134 1 0.527293 0.936207 0.831758
26 1 0.379797 0.853363 0.822941
326 2 0.334018 0.857477 0.957481
223 1 0.470263 0.876376 0.967554
272 1 0.634775 0.831257 0.877716
73 1 0.602747 0.946542 0.988209
99 1 0.3383 0.977904 0.939745
339 2 0.960328 0.0707258 0.0638989
268 1 0.843295 0.0832241 0.125239
7 1 0.957456 0.201317 0.088597
305 2 0.818968 0.218725 0.135716
149 1 0.887093 0.226936 0.239021
280 1 0.703153 0.171649 0.0742697
62 1 0.744428 0.155818 0.218762
1 1 0.739366 0.0296469 0.0061901
93 1 0.971136 0.00590866 0.180198
204 1 0.747787 0.0226971 0.438226
298 2 0.705517 0.119148 0.343142
39 1 0.815875 0.168863 0.380689
206 1 0.898919 0.0217285 0.435373
157 1 0.833976 0.0371572 0.274747
74 1 0.95736 0.113059 0.323652
214 1 0.932252 0.171254 0.491895
57 1 0.688981 0.00372489 0.289788
176 1 0.719262 0.0505979 0.669898
111 1 0.891542 0.0356316 0.58704
148 1 0.839587 0.15963 0.672616
110 1 0.783034 0.147063 0.531074
316 2 0.964868 0.178837 0.640504
334 2 0.759197 0.246246 0.611871
150 1 0.954438 0.00373519 0.738435
84 1 0.785537 0.0412154 0.850401
350 2 0.970855 0.219099 0.958658
352 2 0.809314 0.165648 0.811768
239 1 0.732391 0.204999 0.91815
288 1 0.926815 0.137418 0.832654
128 1 0.866175 0.117796 0.97669
162 1 0.676779 0.166932 0.770401
16 1 0.941976 0.00634398 0.893539
333 2 0.816734 0.441235 0.143939
207 1 0.914796 0.342482 0.143142
221 1 0.761352 0.338767 0.173434
253 1 0.905959 0.486613 0.0645382
242 1 0.752038 0.437331 0.0140326
186 1 0.808649 0.289539 0.0234615
286 1 0.959374 0.338752 0.00021426
195 1 0.966254 0.436411 0.380714
308 2 0.952809 0.349495 0.278223
104 1 0.833592 0.343574 0.320027
72 1 0.693228 0.261357 0.307034
21 1 0.823143 0.299814 0.46982
22 1 0.686996 0.40699 0.391934
44 1 0.749079 0.499498 0.271819
247 1 0.827673 0.496491 0.401526
2 1 0.991896 0.259346 0.370657
344 2 0.675699 0.398179 0.258397
88 1 0.90293 0.465451 0.250224
263 1 0.770586 0.391094 0.606017
118 1 0.786239 0.280705 0.736333
89 1 0.888719 0.28364 0.60745
108 1 0.91271 0.430192 0.544386
33 1 0.890344 0.39999 0.741019
116 1 0.967542 0.25178 0.744704
187 1 0.714276 0.442693 0.7376
43 1 0.667207 0.290373 0.509623
130 1 0.723214 0.360382 0.883996
220 1 0.864504 0.433177 0.903483
120 1 0.873647 0.272469 0.868466
283 1 0.791349 0.705693 0.030624
63 1 0.778118 0.555644 0.116106
310 2 0.891793 0.613148 0.0521272
243 1 0.972603 0.567148 0.169648
87 1 0.887799 0.702294 0.15055
226 1 0.701438 0.743308 0.154449
233 1 0.829852 0.663156 0.422154
285 1 0.939659 0.603626 0.32078
237 1 0.801164 0.64369 0.264218
165 1 0.974788 0.699459 0.44339
312 2 0.982658 0.555116 0.450989
113 1 0.681294 0.589596 0.392358
297 2 0.962122 0.66237 0.639523
181 1 0.817471 0.525523 0.674963
85 1 0.776906 0.678018 0.626288
18 1 0.735837 0.525787 0.522417
279 1 0.986216 0.510784 0.668096
211 1 0.895505 0.593679 0.546868
331 2 0.717945 0.657065 0.502299
97 1 0.863123 0.600639 0.918284
192 1 0.999415 0.57566 0.993103
337 2 0.826236 0.525819 0.80869
34 1 0.753909 0.632245 0.773944
79 1 0.97638 0.521315 0.838738
124 1 0.707766 0.686154 0.90595
141 1 0.71792 0.519328 0.885136
315 2 0.747622 0.578138 0.991075
161 1 0.948748 0.7152 0.993329
227 1 0.911785 0.628554 0.750953
262 1 0.876968 0.956263 0.0488713
194 1 0.738897 0.87562 0.0907013
167 1 0.849845 0.882219 0.200803
173 1 0.978441 0.835524 0.117355
319 2 0.800153 0.777355 0.245065
322 2 0.873812 0.802502 0.0606099
353 2 0.777355 0.997732 0.169508
179 1 0.694939 0.866508 0.241629
304 2 0.860342 0.791893 0.422576
284 1 0.719961 0.75622 0.349327
219 1 0.812972 0.890715 0.355782
244 1 0.957482 0.925318 0.326494
255 1 0.920995 0.774223 0.295721
269 1 0.982537 0.850189 0.464112
222 1 0.668232 0.893322 0.428071
260 1 0.905953 0.776406 0.706531
303 2 0.803635 0.809603 0.628474
140 1 0.891517 0.752184 0.558206
6 1 0.95858 0.89719 0.61192
32 1 0.698587 0.889716 0.596488
5 1 0.832706 0.898257 0.514903
90 1 0.824504 0.923303 0.673015
169 1 0.748219 0.7706 0.508088
321 2 0.99233 0.965057 0.511262
349 2 0.765696 0.993406 0.569975
24 1 0.85054 0.902432 0.816373
71 1 0.941323 0.862777 0.940159
296 2 0.701297 0.948455 0.90093
127 1 0.765652 0.849616 0.953582
267 1 0.684635 0.942471 0.776667
95 1 0.857022 0.751727 0.852377
281 1 0.746051 0.80214 0.750632
ITEM: TIMESTEP
3000000
ITEM: NUMBER OF ATOMS
360
ITEM: BOX BOUNDS pp pp pp
0.0000000000000000e+00 6.6943295008216896e+00
0.0000000000000000e+00 6.6943295008216896e+00
0.0000000000000000e+00 6.6943295008216896e+00
ITEM: ATOMS id type xs ys zs
78 1 0.085312 0.218285 0.176738
83 1 0.236323 0.144842 0.164961
10 1 0.111416 0.090697 0.0825827
204 1 0.0333553 0.0652853 0.212237
106 1 0.274014 0.00343691 0.0652111
179 1 0.198101 -0.00693201 0.212693
69 1 0.145505 0.137065 0.3004
297 2 0.0750654 0.0126283 0.464601
172 1 0.213204 0.0714701 0.443982
115 1 0.0231811 0.129497 0.403048
155 1 0.252657 0.215212 0.392298
109 1 0.287836 0.0744475 0.309977
343 2 0.13092 0.161137 0.465194
279 1 0.0348492 0.00684993 0.71957
321 2 0.242706 0.117402 0.576328
228 1 0.194353 0.181782 0.687391
235 1 0.206549 0.0229322 0.728468
119 1 0.109383 0.0927609 0.580545
206 1 0.196203 0.233652 0.535234
240 1 0.0201544 0.166868 0.681412
118 1 0.0288104 0.226716 0.524892
30 1 0.328077 0.104389 0.66259
345 2 0.14709 0.0934123 0.94438
16 1 0.0872908 0.23923 0.806443
6 1 0.212387 0.139187 0.844738
346 2 0.107923 0.116883 0.764222
200 1 0.064607 0.19364 0.951397
217 1 0.250122 0.147767 0.994377
147 1 0.241891 -0.00733078 0.914049
68 1 0.186988 0.434971 0.159649
64 1 0.20404 0.279011 0.0746894
171 1 0.0576996 0.324155 0.0678609
246 1 0.0659877 0.365139 0.230311
292 2 0.0480766 0.473576 0.122091
237 1 0.304574 0.366404 0.000881149
196 1 0.31701 0.359579 0.170689
163 1 0.209784 0.380986 0.399975
245 1 0.0543007 0.438603 0.36309
131 1 0.284863 0.480415 0.277393
304 2 0.170833 0.428658 0.288558
212 1 0.0784926 0.279669 0.362575
249 1 0.307721 0.488038 0.474233
143 1 0.197845 0.303513 0.259021
210 1 0.320926 0.325406 0.486512
199 1 0.224708 0.388193 0.601766
248 1 0.135233 0.4549 0.712232
23 1 0.0960154 0.300629 0.651602
35 1 0.0831686 0.362746 0.507702
203 1 0.235552 0.332595 0.75732
66 1 0.325076 0.472265 0.756784
128 1 0.0345572 0.338041 0.911543
75 1 0.214676 0.44113 0.856227
318 2 0.119992 0.357212 0.822149
142 1 0.193772 0.294022 0.908454
232 1 0.0698665 0.49717 0.856265
154 1 0.138188 0.427418 0.987961
13 1 -0.00892263 0.36901 0.766911
124 1 0.222209 0.719655 0.0689901
129 1 0.275694 0.527139 0.0583756
49 1 0.122205 0.561841 0.0774091
285 1 0.0613857 0.674642 0.171043
43 1 0.222316 0.605443 0.207381
175 1 0.0725509 0.518475 0.241855
323 2 0.314166 0.650904 0.128788
28 1 0.0848039 0.701278 0.0089274
91 1 0.277792 0.70091 0.335351
211 1 0.0945019 0.626119 0.468129
218 1 0.116889 0.669898 0.316095
274 1 0.172513 0.528282 0.369363
325 2 0.309525 0.571439 0.370253
58 1 0.245529 0.64068 0.497826
53 1 -0.00105377 0.755363 0.412413
319 2 0.0410461 0.558273 0.608612
82 1 0.140629 0.647746 0.622798
76 1 0.275189 0.54827 0.625732
287 1 0.272312 0.753981 0.739277
208 1 0.141429 0.507606 0.557315
174 1 0.0534097 0.652956 0.851049
225 1 0.186509 0.578381 0.937611
178 1 0.199833 0.717232 0.880609
333 2 0.0420737 0.581413 0.970568
141 1 0.191813 0.594772 0.777491
26 1 0.323544 0.662841 0.975431
25 1 0.213886 0.872783 0.110089
135 1 0.18547 0.768016 0.216843
122 1 0.0765514 0.921308 0.157022
330 2 0.114068 0.782095 0.108056
93 1 0.117205 0.959126 0.00690826
34 1 0.00811795 0.844956 0.038057
47 1 0.338003 0.934724 0.202992
324 2 0.0382417 0.880991 0.437408
244 1 0.0817687 0.837809 0.306018
150 1 0.161878 0.912944 0.472113
326 2 0.207686 0.980139 0.356921
7 1 0.245992 0.860974 0.322458
102 1 0.314953 0.961635 0.419061
278 1 0.157778 0.763863 0.435209
123 1 0.0810751 0.984454 0.333917
32 1 0.0295417 0.9438 0.562497
213 1 0.135513 0.894288 0.661531
328 2 0.313515 0.897058 0.527596
5 1 0.0730966 0.777068 0.564235
276 1 0.239398 0.805968 0.582786
46 1 0.23362 0.988325 0.580403
159 1 0.100509 0.755673 0.748766
42 1 0.329852 0.904158 0.674971
77 1 0.224524 0.882608 0.801365
126 1 0.0916616 0.838588 0.902385
17 1 0.228365 0.848027 0.956114
349 2 0.0732167 0.885009 0.782123
84 1 0.0953863 0.991329 0.855563
101 1 0.532765 0.0442371 0.173389
70 1 0.478549 0.115752 0.0553743
92 1 0.638788 0.100907 0.0676467
11 1 0.357454 0.241777 0.072118
144 1 0.559129 0.220939 0.124239
205 1 0.377305 0.0740209 0.166293
350 2 0.439783 0.191949 0.16089
303 2 0.358253 0.100355 0.0362187
301 2 0.559526 0.149894 0.23499
310 2 0.643827 0.226744 0.00257191
189 1 0.591855 0.0332815 0.323783
50 1 0.402481 0.216793 0.395711
188 1 0.489651 0.051122 0.436377
308 2 0.387512 0.0656957 0.381217
238 1 0.575806 0.186323 0.380243
230 1 0.335126 0.22398 0.251343
41 1 0.449272 0.119343 0.291536
105 1 0.656458 0.0480206 0.475025
156 1 0.619181 0.0637476 0.627925
302 2 0.510172 0.0782391 0.570705
266 1 0.476196 0.173719 0.655091
306 2 0.430957 0.206126 0.525998
4 1 0.569003 0.185503 0.533429
158 1 0.46538 0.0240879 0.693391
54 1 0.352729 0.114943 0.495303
151 1 0.328957 0.258929 0.627047
354 2 0.446003 0.107762 0.797626
176 1 0.594465 0.129547 0.766097
134 1 0.394922 0.117401 0.921789
223 1 0.573885 0.130801 0.930256
99 1 0.498495 0.0129881 0.861392
52 1 0.491334 0.225383 0.828007
231 1 0.343967 0.00408793 0.809495
29 1 0.344637 0.198248 0.783677
329 2 0.334563 0.240216 0.929319
250 1 0.471018 0.349204 0.111997
114 1 0.632732 0.341938 0.157759
112 1 0.605144 0.349379 0.00612307
202 1 0.54752 0.474088 0.0866474
216 1 0.391787 0.490172 0.153323
256 1 0.512111 0.425379 0.240513
247 1 0.497171 0.343885 0.396395
347 2 0.647523 0.43499 0.430845
207 1 0.355312 0.346533 0.335471
44 1 0.635978 0.347054 0.321833
57 1 0.491661 0.264275 0.254864
289 2 0.412884 0.411983 0.486422
61 1 0.637506 0.309038 0.484237
160 1 0.391314 0.417944 0.606058
241 1 0.548207 0.424449 0.694729
298 2 0.627808 0.376463 0.598887
15 1 0.486273 0.310003 0.565572
139 1 0.438679 0.310692 0.714129
117 1 0.596235 0.277443 0.706476
125 1 0.544476 0.454612 0.504537
192 1 0.350313 0.355962 0.855066
80 1 0.552442 0.375624 0.847724
96 1 0.452464 0.417866 0.968177
94 1 0.452048 0.497943 0.823959
336 2 0.646078 0.380292 0.762081
137 1 0.476525 0.266961 0.975278
40 1 0.654029 0.250022 0.875573
215 1 0.438274 0.700781 0.129031
170 1 0.556016 0.709296 0.23794
344 2 0.538399 0.632735 0.0801158
37 1 0.526222 0.575083 0.195057
180 1 0.434054 0.569859 0.0191246
55 1 0.662932 0.631518 0.135372
259 1 0.64398 0.570742 0.483505
201 1 0.408215 0.64654 0.432725
136 1 0.566329 0.686453 0.412383
290 2 0.50229 0.614907 0.318579
284 1 0.579691 0.517981 0.350691
316 2 0.517364 0.582791 0.466699
8 1 0.422604 0.501587 0.358454
252 1 0.384282 0.602427 0.248733
182 1 0.503726 0.684837 0.566925
130 1 0.46021 0.591282 0.69733
183 1 0.589795 0.550553 0.629032
177 1 0.422015 0.554298 0.553661
48 1 0.348774 0.689206 0.610122
166 1 0.627433 0.676525 0.710313
261 1 0.447447 0.753036 0.723416
357 2 0.42844 0.615977 0.897888
87 1 0.531271 0.654379 0.834711
341 2 0.664014 0.672576 0.835434
38 1 0.627291 0.645844 0.988528
185 1 0.472857 0.713138 0.985951
251 1 0.341474 0.629976 0.796826
220 1 0.619332 0.527799 0.797167
27 1 0.328892 0.516731 0.905935
242 1 0.55633 0.52819 0.931069
184 1 0.347778 0.817274 0.0532187
258 1 0.432954 0.944858 0.0925302
293 2 0.475082 0.82839 0.0673298
103 1 0.490059 0.847418 0.203721
280 1 0.605494 0.909892 0.128382
9 1 0.577873 0.762146 0.0854607
335 2 0.638489 0.807047 0.20311
145 1 0.33777 0.782275 0.218743
165 1 0.440352 0.75011 0.330968
209 1 0.582478 0.837953 0.325659
236 1 0.459833 0.884085 0.433363
294 2 0.580233 0.947473 0.419273
351 2 0.375423 0.862766 0.320931
152 1 0.451138 0.966531 0.303414
327 2 0.471007 0.758495 0.464273
3 1 0.317551 0.794939 0.445305
265 1 0.589577 0.816067 0.493422
132 1 0.57883 0.828244 0.647225
90 1 0.554543 0.955168 0.54894
332 2 0.466635 0.890889 0.672435
14 1 0.413767 0.830004 0.568325
264 1 0.405887 0.99079 0.560683
254 1 0.589239 0.957774 0.728825
63 1 0.602336 0.815216 0.807791
45 1 0.515698 0.850468 0.946431
267 1 0.4626 0.881281 0.801196
296 2 0.593385 0.921293 0.867596
121 1 0.38295 0.937084 0.941096
277 1 0.354853 0.780676 0.873788
320 2 0.47783 0.767927 0.859792
340 2 0.604228 0.765116 0.944056
36 1 0.556732 0.98919 0.999058
1 1 0.720295 0.226247 0.11188
127 1 0.956348 0.159518 0.102339
359 2 0.789732 0.160965 0.20104
342 2 0.842248 0.21647 0.0618743
71 1 0.811365 0.0888161 0.0775291
72 1 0.71208 0.0541629 0.194022
227 1 0.881243 0.0722904 0.235054
214 1 0.871095 0.100081 0.43325
193 1 0.736293 0.091353 0.347454
353 2 0.960544 0.0440919 0.319533
198 1 0.906342 0.242566 0.434272
21 1 0.75532 0.193873 0.463198
133 1 0.959304 0.195018 0.270879
138 1 0.813689 0.221069 0.317031
12 1 0.667522 0.207964 0.260434
111 1 0.882024 0.0667411 0.685622
33 1 0.854647 0.199517 0.58739
282 1 0.733009 0.167667 0.717624
263 1 0.769579 0.0808678 0.571554
157 1 0.964609 0.0865503 0.550657
338 2 0.680922 0.173468 0.593246
272 1 0.739854 0.00560309 0.711861
148 1 0.896682 0.236498 0.747076
268 1 0.88614 0.172953 0.944479
116 1 0.806463 0.0903222 0.830679
262 1 0.726055 0.140448 0.941993
315 2 0.685708 0.00510556 0.977118
334 2 0.793918 0.220883 0.849665
31 1 0.976057 0.121929 0.834113
98 1 0.979143 0.0414972 0.968124
257 1 0.664209 0.0187297 0.858455
305 2 0.959594 0.247671 0.851857
24 1 0.81265 -0.00297407 0.958518
352 2 0.977226 0.286253 0.155943
149 1 0.907522 0.318121 0.0220217
113 1 0.770829 0.384198 0.100123
18 1 0.929589 0.433174 0.155162
356 2 0.741936 0.305365 0.232366
224 1 0.853837 0.270987 0.177702
2 1 0.985378 0.451377 -0.000175922
226 1 0.668258 0.488184 0.222334
62 1 0.799819 0.411535 0.254571
86 1 0.786382 0.350945 0.396343
295 2 0.958407 0.377626 0.450391
312 2 0.705707 0.256296 0.370385
195 1 0.886202 0.474522 0.38909
74 1 0.940117 0.346037 0.324156
300 2 0.944646 0.473492 0.275217
234 1 0.734559 0.303697 0.607072
270 1 0.863154 0.375464 0.690128
146 1 0.750358 0.450748 0.518767
181 1 0.872802 0.355472 0.535587
186 1 0.70621 0.446745 0.67614
355 2 0.960317 0.284779 0.632909
153 1 1.00812 0.421162 0.628587
85 1 0.99867 0.492654 0.494744
162 1 0.752474 0.317476 0.769868
120 1 0.693518 0.430756 0.881993
190 1 0.867506 0.346815 0.870271
239 1 0.765142 0.289158 0.967705
243 1 0.820165 0.458463 0.96788
337 2 0.942326 0.445654 0.866754
187 1 0.816014 0.491556 0.788458
19 1 0.807008 0.682656 0.201921
108 1 0.952878 0.593859 0.065315
253 1 0.792473 0.639702 0.0355279
104 1 0.817238 0.530006 0.136562
275 1 0.931646 0.592415 0.222878
221 1 0.687734 0.511749 0.0269189
89 1 0.828286 0.652988 0.355825
307 2 0.872125 0.719433 0.449729
56 1 0.983394 0.599517 0.364253
311 2 0.701328 0.705293 0.41714
173 1 0.952288 0.737388 0.271256
107 1 0.744869 0.513262 0.375609
314 2 0.805477 0.547138 0.27189
22 1 0.681988 0.621831 0.29075
331 2 0.722596 0.554045 0.5851
219 1 0.833916 0.722156 0.613641
358 2 0.879215 0.59893 0.692216
79 1 0.857275 0.510087 0.607904
233 1 0.758517 0.612246 0.694855
273 1 0.939284 0.643457 0.533579
255 1 0.663018 0.697488 0.562327
51 1 0.976427 0.684763 0.680479
191 1 0.986894 0.536015 0.741922
20 1 0.789355 0.620754 0.494638
260 1 0.923509 0.730307 0.964908
97 1 0.749164 0.586123 0.898846
81 1 0.860963 0.659271 0.809961
286 1 0.93008 0.571006 0.911017
88 1 0.722013 0.751198 0.916238
161 1 0.928394 0.973146 0.113236
283 1 0.723752 0.800076 0.100846
339 2 0.816626 0.965116 0.199677
168 1 0.744594 0.945883 0.0946437
322 2 0.970463 0.848168 0.16573
100 1 0.817864 0.838059 0.215914
140 1 0.920211 0.745332 0.121711
60 1 0.959476 0.975927 0.424897
194 1 0.717388 0.769995 0.307826
167 1 0.860848 0.827412 0.364432
169 1 0.830254 0.973537 0.34833
222 1 0.698076 0.913304 0.409707
299 2 0.781902 1.00853 0.465119
65 1 0.694807 0.921479 0.247844
39 1 0.956243 0.916892 0.267126
197 1 0.770191 0.799269 0.490226
313 2 0.879167 0.762526 0.728376
348 2 0.703732 0.888737 0.743462
360 2 0.71638 0.801075 0.625421
271 1 0.818349 0.873146 0.685425
59 1 0.698584 0.928001 0.574852
309 2 0.923473 0.947896 0.695313
269 1 0.922399 0.820058 0.522444
110 1 0.868196 0.957874 0.555629
229 1 0.980349 0.837447 0.684696
281 1 0.742638 0.757265 0.755005
164 1 0.968796 0.789766 0.82328
95 1 0.777791 0.893384 0.846925
67 1 0.83582 0.855195 0.989991
317 2 0.947233 0.881164 0.917845
288 1 0.914606 0.962684 0.826072
291 2 0.834871 0.779716 0.858733
73 1 0.676273 0.882937 0.973609
ITEM: TIMESTEP
6000000
ITEM: NUMBER OF ATOMS
360
ITEM: BOX BOUNDS pp pp pp
0.0000000000000000e+00 6.6943295008216896e+00
0.0000000000000000e+00 6.6943295008216896e+00
0.0000000000000000e+00 6.6943295008216896e+00
ITEM: ATOMS id type xs ys zs
148 1 0.0337986 0.0511052 0.150837
350 2 0.271132 0.119683 0.179098
230 1 0.156611 0.129542 0.110726
50 1 0.2749 0.0259671 0.0801209
189 1 0.283138 0.239908 0.117545
69 1 0.189906 0.0262581 0.217941
1 1 0.011271 0.204545 0.117926
322 2 0.149121 0.249299 0.166172
123 1 0.145003 0.104648 0.441474
337 2 0.242531 0.200085 0.431958
150 1 0.0866961 0.00948742 0.331991
334 2 0.210764 0.0950207 0.329776
210 1 0.26537 0.209458 0.284529
256 1 0.29937 0.0846441 0.435349
175 1 0.113052 0.148925 0.2683
74 1 0.0165831 0.157595 0.39452
16 1 0.130439 0.161081 0.68522
327 2 0.030238 0.136516 0.52865
3 1 0.235344 0.147236 0.563084
271 1 0.11251 0.0380611 0.576884
266 1 0.298866 0.174677 0.706212
118 1 0.129725 0.235494 0.513435
264 1 0.221491 0.023758 0.700228
119 1 0.0158384 0.234568 0.621361
311 2 0.333531 0.0664609 0.640775
78 1 0.185403 0.130359 0.829644
178 1 0.239323 0.159509 0.982746
239 1 0.0796226 0.156838 0.957049
279 1 0.0238801 0.0836803 0.805336
355 2 0.166262 0.238904 0.895149
68 1 0.129581 0.00250067 0.964613
225 1 0.0611357 0.232802 0.816124
250 1 0.26771 0.0216664 0.881801
305 2 0.139248 0.00302432 0.805805
246 1 0.0511042 0.312253 0.208977
207 1 0.243818 0.381744 0.110219
124 1 0.150296 0.478059 0.195394
51 1 0.0837634 0.426428 0.0547128
109 1 0.138904 0.282248 0.0503143
135 1 0.304777 0.47715 0.232036
324 2 0.328918 0.348556 0.196429
260 1 0.00016126 0.480613 0.191107
4 1 0.200113 0.350226 0.244666
157 1 0.0816843 0.397819 0.334238
43 1 0.219493 0.367113 0.465494
104 1 0.0153279 0.328656 0.470938
125 1 0.0828375 0.476893 0.455837
143 1 0.209801 0.47555 0.347082
216 1 0.320449 0.348001 0.333925
284 1 0.13137 0.262045 0.365055
212 1 0.0654609 0.391236 0.595897
333 2 0.256077 0.390536 0.72014
54 1 0.232457 0.297562 0.629352
353 2 0.100893 0.293043 0.696512
89 1 0.214402 0.469444 0.599627
46 1 0.134834 0.408712 0.738745
199 1 0.240884 0.452628 0.849106
358 2 0.187069 0.434329 0.982062
248 1 0.257184 0.31569 0.952176
184 1 0.108397 0.355747 0.897487
52 1 0.211509 0.282933 0.789248
315 2 0.0068818 0.413833 0.833261
249 1 0.220953 0.53306 0.0570568
163 1 0.288368 0.629579 0.165665
180 1 0.133972 0.62372 0.15687
329 2 0.0658409 0.542326 0.0859536
296 2 0.212431 0.649967 0.0469076
7 1 0.169795 0.632547 0.394334
275 1 0.0521324 0.711452 0.327158
129 1 0.197762 0.707926 0.266146
34 1 0.0768556 0.564195 0.293663
27 1 0.301065 0.716163 0.463278
37 1 0.0167266 0.618892 0.453402
197 1 0.31404 0.615887 0.311727
177 1 0.265844 0.551942 0.466336
328 2 0.207417 0.575962 0.263457
319 2 0.0251939 0.743669 0.465448
130 1 0.322518 0.515697 0.712966
211 1 0.128641 0.702204 0.525965
219 1 0.0883229 0.682382 0.679382
82 1 0.236615 0.639796 0.620428
307 2 0.145714 0.573226 0.505905
251 1 0.0625366 0.53858 0.60422
217 1 0.184772 0.575608 0.745709
200 1 0.0904142 0.514573 0.92311
122 1 0.0775384 0.639042 0.834121
13 1 0.219105 0.612118 0.9051
261 1 0.200546 0.725684 0.780909
17 1 0.232077 0.744835 0.971623
9 1 0.332517 0.701547 0.855494
191 1 0.0133255 0.510391 0.750394
64 1 0.0984922 0.653407 0.998116
326 2 0.317315 0.641131 0.749802
6 1 0.0766599 0.775297 0.171614
258 1 0.149475 0.923121 0.107843
285 1 0.237377 0.790817 0.114614
274 1 0.30692 0.91981 0.185646
2 1 0.0976818 0.815844 0.00702104
245 1 0.0176138 0.902517 0.218728
278 1 0.304304 0.80895 0.317048
42 1 0.235473 0.96828 0.35878
188 1 0.128783 0.922006 0.464805
67 1 0.0295471 0.853577 0.361866
53 1 0.167862 0.791612 0.39529
19 1 0.171091 0.860945 0.256308
58 1 0.238521 0.837959 0.544612
345 2 0.0114568 0.955066 0.591677
287 1 0.197365 0.869514 0.728257
208 1 0.0863018 0.825022 0.618873
306 2 0.170102 0.93062 0.621613
229 1 0.0728575 0.957861 0.714046
235 1 0.261565 0.997013 0.551313
25 1 0.317219 0.767364 0.695554
357 2 0.189943 0.761469 0.654084
101 1 0.173973 0.873009 0.872709
297 2 0.114038 0.754987 0.894057
172 1 0.0605971 0.805122 0.77676
204 1 0.320605 0.872821 0.813183
84 1 0.0088324 0.908916 0.892679
213 1 0.26904 0.894305 0.987576
316 2 0.602006 0.177305 0.163813
171 1 0.3985 0.104385 0.128299
73 1 0.558815 0.0672651 0.118228
262 1 0.531271 0.24734 0.0862558
310 2 0.484942 0.123634 0.0294928
205 1 0.392179 0.23241 0.0070543
155 1 0.400439 0.193907 0.37138
308 2 0.522039 0.230842 0.355466
218 1 0.514603 0.236967 0.485683
110 1 0.602319 0.144213 0.402833
45 1 0.632423 0.0304307 0.268741
302 2 0.493392 0.10443 0.451978
247 1 0.51373 0.134663 0.267
102 1 0.335963 0.0607748 0.271311
77 1 0.414803 0.151229 0.586485
12 1 0.487507 0.0429257 0.676904
120 1 0.568962 0.081365 0.549604
289 2 0.542629 0.160924 0.658812
61 1 0.63119 0.22576 0.588275
158 1 0.447 0.195405 0.738576
66 1 0.565706 0.101433 0.809579
268 1 0.614947 0.158126 0.995654
298 2 0.445846 0.113053 0.850683
176 1 0.369327 0.0565225 0.770402
144 1 0.384418 0.0829185 0.962589
162 1 0.531619 0.020492 0.960458
92 1 0.513311 0.225485 0.886614
30 1 0.337407 0.202132 0.85628
183 1 0.603595 0.245699 0.757198
114 1 0.587212 0.429526 0.137267
154 1 0.417699 0.360096 0.0803096
226 1 0.444047 0.410312 0.222948
40 1 0.571414 0.292108 0.230894
57 1 0.664247 0.494053 0.0100965
105 1 0.408486 0.255999 0.216398
227 1 0.627776 0.319054 0.381939
238 1 0.473631 0.348669 0.374936
166 1 0.370542 0.436561 0.468688
112 1 0.602588 0.44804 0.293119
215 1 0.539258 0.47716 0.448133
169 1 0.357527 0.288026 0.486483
323 2 0.335099 0.490545 0.358408
137 1 0.483667 0.307701 0.637296
241 1 0.6026 0.398317 0.686103
15 1 0.596633 0.366542 0.540063
237 1 0.473413 0.493683 0.598749
313 2 0.461215 0.359572 0.517329
206 1 0.350225 0.396335 0.619456
301 2 0.351058 0.259421 0.630259
75 1 0.579335 0.390909 0.840364
352 2 0.483804 0.311937 0.777204
231 1 0.42709 0.355651 0.888947
98 1 0.648658 0.324451 0.979543
203 1 0.359726 0.314906 0.758659