ITEM: TIMESTEP
0
ITEM: NUMBER OF ATOMS
360
ITEM: BOX BOUNDS pp pp pp
0.0000000000000000e+00 6.6943295008216896e+00
0.0000000000000000e+00 6.6943295008216896e+00
0.0000000000000000e+00 6.6943295008216896e+00
ITEM: ATOMS id type xs ys zs
94 1 0.0686328 0.127651 0.11451
228 1 0.228493 0.137807 0.0683132
210 1 0.194677 0.186531 0.22439
105 1 0.314958 0.0545247 0.200863
275 1 0.164221 0.0192427 0.193258
341 2 0.113806 0.0425627 0.448371
92 1 0.284389 0.0751282 0.451936
143 1 0.15769 0.164836 0.397133
191 1 0.198318 0.0228064 0.337052
79 1 0.310464 0.161576 0.335997
214 1 0.0459533 0.154141 0.262902
230 1 0.269197 0.217069 0.709361
335 2 0.197443 0.104231 0.677089
118 1 0.0461008 0.217571 0.508134
196 1 0.168069 0.111899 0.550028
285 1 0.0818968 0.0378456 0.670674
75 1 0.0948987 0.1994 0.675038
244 1 0.272144 0.0166799 0.597875
270 1 0.330275 0.180975 0.558426
236 1 0.00487255 0.0622415 0.543341
204 1 0.167024 0.176934 0.814084
337 2 0.220256 0.173982 0.940748
164 1 0.113038 0.101002 0.944907
162 1 0.277059 0.0564717 0.925858
78 1 0.0100137 0.197199 0.82319
126 1 0.329082 0.187926 0.84321
220 1 0.152184 0.00983399 0.822881
15 1 0.292825 0.063229 0.755528
247 1 0.118613 0.418615 0.173492
271 1 0.214343 0.314359 0.115693
186 1 0.258655 0.467804 0.101857
120 1 0.0516367 0.287943 0.077061
309 2 0.25279 0.42208 0.225458
36 1 0.303305 0.257329 0.00145995
299 2 0.10118 0.28495 0.209971
349 2 0.289725 0.279834 0.25289
237 1 0.188795 0.326796 0.312298
41 1 0.0775238 0.427011 0.348458
245 1 0.206229 0.413563 0.464409
277 1 0.260054 0.260375 0.439277
258 1 0.054379 0.271376 0.353378
302 2 0.138993 0.29496 0.453518
340 2 0.0929354 0.488538 0.46653
19 1 0.0327573 0.36159 0.481647
192 1 0.317968 0.389643 0.341033
33 1 0.110187 0.45183 0.592311
354 2 0.0712675 0.332335 0.617189
52 1 0.159657 0.362249 0.702913
47 1 0.264391 0.474981 0.597908
146 1 0.184261 0.270096 0.576465
331 2 0.063384 0.45133 0.730945
240 1 0.308089 0.374274 0.719923
14 1 0.00393386 0.320502 0.715781
313 2 0.28995 0.380024 0.972132
273 1 0.23547 0.310773 0.861304
53 1 0.0889614 0.403243 0.842664
226 1 0.238259 0.4617 0.871374
317 2 0.0655756 0.48865 0.945107
344 2 0.116159 0.285179 0.790565
187 1 0.123516 0.258294 0.934801
10 1 0.152057 0.411005 0.999628
224 1 0.174306 0.687074 0.0917775
169 1 0.153046 0.573634 0.206837
182 1 0.309547 0.618812 0.121095
167 1 0.0251718 0.666022 0.126717
130 1 0.0383266 0.509936 0.067575
107 1 0.333208 0.51423 0.231287
184 1 0.0558002 0.579172 0.354764
217 1 0.257966 0.721174 0.429098
306 2 0.312587 0.581981 0.395185
290 2 0.183867 0.634803 0.342236
34 1 0.291656 0.663738 0.286481
278 1 0.211931 0.51079 0.341409
69 1 0.0991417 0.719951 0.414265
282 1 0.21664 0.56949 0.487983
135 1 0.137648 0.721476 0.253379
99 1 0.0309887 0.582284 0.673098
330 2 0.154068 0.585236 0.633024
350 2 0.0331734 0.694536 0.610015
157 1 0.27948 0.624308 0.655003
242 1 0.149183 0.68652 0.726235
70 1 0.173107 0.515235 0.731208
148 1 0.171207 0.703448 0.557321
173 1 0.0634714 0.602683 0.521488
305 2 0.296865 0.735338 0.57137
25 1 0.0464062 0.651803 0.967785
5 1 0.200086 0.620117 0.854622
322 2 0.319938 0.574387 0.882656
98 1 0.0631239 0.551206 0.833531
284 1 0.328603 0.515331 0.758021
203 1 0.299413 0.675799 0.970693
310 2 0.167488 0.726882 0.948373
128 1 0.177377 0.562409 0.99517
248 1 0.331006 0.681706 0.79431
250 1 0.142406 0.870868 0.155034
90 1 0.249939 0.973795 0.0543062
54 1 0.0909213 0.796841 0.0267786
23 1 0.247533 0.806072 0.0363662
56 1 0.093415 0.991664 0.0400832
16 1 0.287187 0.918037 0.246437
29 1 0.269248 0.771122 0.18607
26 1 0.165638 0.875968 0.399353
171 1 0.0464901 0.841734 0.313133
198 1 0.325801 0.852572 0.371597
304 2 0.235951 0.776819 0.309553
346 2 0.16761 0.905673 0.272828
339 2 0.271588 0.953511 0.425513
134 1 0.0569223 0.986879 0.325089
227 1 0.188047 0.929928 0.690611
65 1 0.125857 0.947881 0.550377
6 1 0.107849 0.811331 0.627343
197 1 0.245923 0.856847 0.540034
151 1 0.27057 0.790507 0.692399
325 2 0.123256 0.815432 0.501176
209 1 0.00134641 0.790126 0.51986
108 1 0.248288 0.788817 0.86559
231 1 0.156822 0.90505 0.940466
96 1 0.291911 0.92287 0.816488
293 2 0.182975 0.859314 0.795393
229 1 0.0935104 0.79096 0.857287
328 2 0.28525 0.895993 0.945002
32 1 0.0547463 0.901366 0.757064
42 1 0.00596838 0.932929 0.912247
175 1 0.336972 0.208627 0.158943
81 1 0.535359 0.168313 0.018397
327 2 0.355806 0.0566935 0.0802133
122 1 0.460274 0.121756 0.140095
112 1 0.616521 0.175618 0.143471
111 1 0.655208 0.073006 0.0406844
232 1 0.585237 0.0673716 0.245077
298 2 0.430566 0.243485 0.0475686
133 1 0.456764 0.129346 0.303033
176 1 0.627593 0.0998904 0.392002
2 1 0.417348 0.223164 0.431579
343 2 0.549144 0.201798 0.263841
178 1 0.559087 0.230846 0.389596
123 1 0.478906 0.0526821 0.45334
76 1 0.634357 0.10725 0.625697
311 2 0.387923 0.0724474 0.54328
303 2 0.592269 0.0662004 0.516546
139 1 0.509429 0.174616 0.537402
274 1 0.486473 0.0223247 0.610161
141 1 0.423644 0.138014 0.692888
195 1 0.527242 0.24035 0.74824
189 1 0.545846 0.0424108 0.91317
61 1 0.41784 0.026606 0.836211
20 1 0.547214 0.0792565 0.769031
206 1 0.605466 0.205083 0.881047
345 2 0.482223 0.147817 0.862272
71 1 0.402386 0.113794 0.967297
283 1 0.415612 0.364237 0.0277028
103 1 0.566674 0.41744 0.121092
31 1 0.488543 0.288074 0.152681
342 2 0.63382 0.297309 0.133302
7 1 0.354827 0.369721 0.167635
9 1 0.603886 0.46733 0.346466
63 1 0.615766 0.346754 0.46933
256 1 0.473771 0.369985 0.407657
152 1 0.35186 0.489856 0.469861
142 1 0.414129 0.287608 0.292303
55 1 0.606931 0.321829 0.255781
60 1 0.472902 0.428766 0.264763
222 1 0.333755 0.348439 0.53604
155 1 0.603379 0.26439 0.609827
153 1 0.43861 0.281044 0.629431
324 2 0.561395 0.360899 0.704277
110 1 0.538218 0.413062 0.58859
289 2 0.393853 0.429899 0.62405
57 1 0.626032 0.460853 0.734626
338 2 0.501116 0.295841 0.520077
97 1 0.469363 0.433219 0.739712
154 1 0.508657 0.464256 0.969715
211 1 0.567655 0.362932 0.845247
67 1 0.447693 0.259309 0.917213
88 1 0.389937 0.398057 0.873199
207 1 0.354063 0.498886 0.989114
333 2 0.537899 0.48919 0.850546
315 2 0.380807 0.269097 0.7633
51 1 0.564483 0.317369 0.996448
263 1 0.660983 0.478038 0.910732
268 1 0.431352 0.66353 0.223795
272 1 0.574661 0.573402 0.219725
87 1 0.572463 0.701289 0.116592
286 1 0.60065 0.560747 0.047724
73 1 0.443653 0.535594 0.120909
140 1 0.40289 0.738616 0.103938
326 2 0.490834 0.634853 0.451123
251 1 0.413147 0.702631 0.380761
114 1 0.588727 0.629948 0.364973
259 1 0.438784 0.553819 0.359453
113 1 0.536256 0.518253 0.486506
101 1 0.657027 0.6349 0.492432
319 2 0.412271 0.610773 0.736716
4 1 0.576487 0.724293 0.718974
115 1 0.426337 0.544499 0.623769
223 1 0.536428 0.643345 0.580225
254 1 0.530343 0.584667 0.746159
121 1 0.654219 0.545263 0.607213
35 1 0.417708 0.723659 0.660655
22 1 0.365083 0.637745 0.519822
40 1 0.469102 0.634601 0.997851
188 1 0.609201 0.617911 0.886125
11 1 0.437819 0.565085 0.865596
288 1 0.483463 0.71947 0.847255
93 1 0.366883 0.893268 0.107601
127 1 0.531418 0.848533 0.126286
201 1 0.461345 0.978021 0.222475
320 2 0.482884 0.877489 0.0106887
21 1 0.655412 0.969802 0.131435
104 1 0.421571 0.822594 0.244984
124 1 0.506978 0.98985 0.0735116
106 1 0.557037 0.755902 0.278289
131 1 0.607829 0.958178 0.431364
172 1 0.600313 0.896576 0.267953
216 1 0.474781 0.880062 0.389369
28 1 0.372668 0.992752 0.351852
49 1 0.539432 0.755895 0.466545
359 2 0.513224 0.998632 0.337455
199 1 0.536388 0.926341 0.730981
91 1 0.392624 0.799091 0.502704
281 1 0.626117 0.959351 0.592965
260 1 0.518031 0.827591 0.600054
109 1 0.376997 0.932053 0.678964
59 1 0.376142 0.955175 0.511964
308 2 0.503702 0.924536 0.511539
334 2 0.620903 0.951285 0.833614
1 1 0.488633 0.895485 0.882441
246 1 0.609757 0.822135 0.828599
8 1 0.414499 0.825632 0.774979
150 1 0.563981 0.781323 0.978762
147 1 0.628398 0.930696 0.971431
213 1 0.388026 0.96403 0.984861
218 1 0.393254 0.80255 0.953985
312 2 0.703449 0.0703564 0.172894
181 1 0.779113 0.171093 0.166749
68 1 0.928457 0.204928 0.159576
64 1 0.950822 0.0521573 0.0248421
177 1 0.821325 0.132182 0.0216518
77 1 0.682116 0.232074 0.0284757
18 1 0.829514 0.0168864 0.160172
129 1 0.793732 0.142645 0.386572
80 1 0.892528 0.0988314 0.268203
190 1 0.74301 0.0363579 0.27744
86 1 0.978118 0.113459 0.3972
266 1 0.690573 0.201613 0.296209
357 2 0.943215 0.22467 0.311778
215 1 0.693298 0.206547 0.486259
82 1 0.853008 0.00863382 0.411453
194 1 0.808778 0.0978841 0.670536
264 1 0.951034 0.142692 0.668811
166 1 0.725842 0.0561737 0.510126
48 1 0.866236 0.141391 0.530576
125 1 0.86576 0.241788 0.74866
348 2 0.94826 0.0162634 0.678597
161 1 0.761124 0.230959 0.631354
50 1 0.690331 0.010934 0.745582
225 1 0.847186 0.147889 0.862699
145 1 0.992205 0.0488845 0.79878
276 1 0.710968 0.164821 0.781369
200 1 0.706022 0.0632136 0.89449
301 2 0.730188 0.19635 0.909209
353 2 0.802989 0.0398806 0.790228
314 2 0.960977 0.0966796 0.907623
44 1 0.980814 0.202346 0.974709
89 1 0.863065 0.0111004 0.894951
262 1 0.922551 0.40317 0.0995454
149 1 0.694397 0.395395 0.0356826
137 1 0.841141 0.451632 0.225512
252 1 0.744295 0.335464 0.181856
295 2 0.805487 0.433399 0.106856
117 1 0.698595 0.482825 0.176189
336 2 0.871648 0.314939 0.16768
13 1 0.816406 0.294797 0.0515143
165 1 0.988849 0.341132 0.232839
58 1 0.997822 0.492303 0.226675
261 1 0.740974 0.381236 0.339445
300 2 0.767963 0.268441 0.386092
159 1 0.839368 0.26413 0.277311
265 1 0.917167 0.401362 0.353619
156 1 0.902291 0.259718 0.429019
355 2 0.805697 0.47776 0.394858
257 1 0.698492 0.490693 0.465289
235 1 0.786269 0.349036 0.490151
316 2 0.902731 0.386523 0.480867
279 1 0.963606 0.434949 0.622349
158 1 0.825199 0.370369 0.652539
62 1 0.683522 0.397013 0.601683
119 1 0.929444 0.291046 0.576531
294 2 0.738259 0.483475 0.68093
183 1 0.692826 0.315659 0.744569
269 1 0.831295 0.489692 0.562535
296 2 0.816211 0.345846 0.788803
43 1 0.822128 0.428736 0.965814
168 1 0.875823 0.293776 0.897469
138 1 0.717167 0.332576 0.894884
102 1 0.766174 0.467852 0.804429
221 1 0.944415 0.429306 0.808668
185 1 0.989002 0.380096 0.960751
351 2 0.769511 0.729387 0.100519
267 1 0.866222 0.716366 0.176556
160 1 0.713962 0.643304 0.166872
208 1 0.752465 0.55018 0.0314855
202 1 0.902528 0.561421 0.128441
360 2 0.806881 0.578429 0.212261
219 1 0.862427 0.675157 0.0205221
83 1 0.689576 0.690122 0.000586564
234 1 0.730464 0.568664 0.310184
253 1 0.809202 0.702363 0.318749
100 1 0.810984 0.602657 0.457386
205 1 0.954737 0.670673 0.432141
170 1 0.898445 0.568225 0.312961
37 1 0.977365 0.704098 0.271831
27 1 0.941774 0.503773 0.459566
358 2 0.674805 0.676378 0.277522
255 1 0.760044 0.646848 0.609929
95 1 0.830601 0.700273 0.736647
46 1 0.907158 0.633691 0.587795
24 1 0.876699 0.520932 0.708056
352 2 0.702325 0.723241 0.704285
72 1 0.733914 0.73279 0.854123
66 1 0.820879 0.583676 0.880756
136 1 0.960553 0.666448 0.812854
332 2 0.859621 0.714164 0.872029
179 1 0.932068 0.531836 0.96574
85 1 0.694223 0.60961 0.76549
39 1 0.696174 0.792398 0.22244
12 1 0.811538 0.854265 0.140169
329 2 0.738843 0.92008 0.213701
212 1 0.929571 0.900033 0.0393667
17 1 0.766755 0.972418 0.0133036
356 2 0.923271 0.775325 0.0700405
174 1 0.973698 0.836973 0.169465
45 1 0.995294 0.998203 0.172459
238 1 0.676394 0.818927 0.0778697
132 1 0.749506 0.882707 0.338041
193 1 0.907242 0.823681 0.371987
280 1 0.900952 0.939583 0.275132
180 1 0.674488 0.754534 0.383749
318 2 0.72622 0.997174 0.395108
241 1 0.991792 0.935888 0.455326
163 1 0.81962 0.759934 0.488381
291 2 0.835556 0.821082 0.267286
144 1 0.81878 0.823192 0.628377
297 2 0.742414 0.97926 0.623506
233 1 0.986723 0.910199 0.612136
239 1 0.861265 0.987185 0.572075
84 1 0.69336 0.852561 0.709966
30 1 0.84699 0.939475 0.719657
321 2 0.880319 0.868541 0.527321
287 1 0.980521 0.761665 0.70408
249 1 0.672957 0.777798 0.57212
323 2 0.911085 0.750972 0.591164
3 1 0.739858 0.897028 0.508881
243 1 0.761108 0.899995 0.861072
74 1 0.802005 0.809879 0.986916
116 1 0.910894 0.838624 0.805201
38 1 0.950856 0.768192 0.943755
292 2 0.890164 0.891463 0.914878
347 2 0.799009 0.82523 0.757806
307 2 0.67921 0.81729 0.94709
ITEM: TIMESTEP
1000000
ITEM: NUMBER OF ATOMS
360
ITEM: BOX BOUNDS pp pp pp
0.0000000000000000e+00 6.6943295008216896e+00
0.0000000000000000e+00 6.6943295008216896e+00
0.0000000000000000e+00 6.6943295008216896e+00
ITEM: ATOMS id type xs ys zs
310 2 0.230873 0.0397995 0.103357
45 1 0.128451 0.129477 0.156629
162 1 0.303477 0.131567 0.172226
262 1 0.0198291 0.205799 0.0922631
44 1 0.0946269 0.0961983 0.0158333
28 1 0.223655 0.00539765 0.230939
189 1 0.255934 0.135191 0.00973612
214 1 0.0330628 0.202467 0.304561
299 2 0.0820595 0.0950547 0.34731
109 1 0.259863 0.118573 0.456411
92 1 0.201248 0.158525 0.311421
118 1 0.102943 0.156704 0.46196
236 1 0.0423883 0.0124852 0.463675
210 1 0.178375 0.00779247 0.372986
244 1 0.198168 0.127027 0.598099
119 1 0.0211707 0.135624 0.59213
320 2 0.28226 0.134376 0.696632
75 1 0.135521 0.237361 0.708824
196 1 0.165468 0.0913857 0.751437
331 2 0.108084 0.237475 0.584553
65 1 0.101264 0.0154039 0.612064
335 2 0.174328 0.0434856 0.510164
187 1 0.264424 0.195908 0.8036
96 1 0.108456 0.020006 0.878662
53 1 0.152443 0.176507 0.890722
20 1 0.275163 0.0546602 0.856226
204 1 0.0188707 0.162205 0.750721
186 1 0.226475 0.42626 0.150634
10 1 0.0640034 0.36184 0.102528
41 1 0.140304 0.273826 0.197953
247 1 0.0553572 0.462634 0.230196
336 2 0.248759 0.257661 0.118247
128 1 0.100006 0.501816 0.0462077
185 1 0.152551 0.254389 0.040613
33 1 0.0647552 0.446982 0.389969
338 2 0.290746 0.321393 0.410211
302 2 0.057529 0.352297 0.296088
175 1 0.279521 0.296207 0.254246
192 1 0.150487 0.295698 0.378833
27 1 0.192133 0.432931 0.312196
2 1 0.231476 0.417984 0.478403
184 1 0.0427692 0.315025 0.496574
79 1 0.229081 0.259408 0.496459
344 2 0.223322 0.332287 0.70562
146 1 0.161621 0.351915 0.600808
99 1 0.0552075 0.466534 0.551982
245 1 0.316373 0.412148 0.614391
270 1 0.283416 0.247906 0.635809
158 1 0.00118902 0.307041 0.641147
136 1 0.0860166 0.397496 0.731915
70 1 0.175878 0.323622 0.83497
271 1 0.301096 0.286582 0.935617
340 2 0.0458401 0.293186 0.803883
179 1 0.0263752 0.313076 0.945407
316 2 0.298245 0.407839 0.89072
242 1 0.0695423 0.450011 0.880566
98 1 0.193513 0.399445 0.976177
240 1 0.229248 0.451309 0.760701
273 1 0.330712 0.334841 0.775204
182 1 0.244485 0.557299 0.0475729
167 1 0.10517 0.685923 0.0637542
169 1 0.157269 0.570191 0.17551
268 1 0.29232 0.544071 0.237978
34 1 0.265985 0.699673 0.129177
174 1 0.0911735 0.713549 0.226208
58 1 0.00537864 0.584663 0.145671
114 1 0.130994 0.737991 0.41122
278 1 0.234969 0.677318 0.294035
152 1 0.287126 0.542968 0.399875
56 1 0.114295 0.572791 0.330673
217 1 0.26629 0.698182 0.454288
173 1 0.0132165 0.607757 0.447206
69 1 0.155053 0.584409 0.48132
148 1 0.176062 0.519672 0.628445
205 1 0.0313866 0.602934 0.613893
197 1 0.229685 0.679483 0.603383
330 2 0.289818 0.567836 0.674331
6 1 0.105911 0.703743 0.699919
282 1 0.308008 0.554478 0.544611
157 1 0.0848706 0.74582 0.556875
350 2 0.10475 0.669856 0.818675
25 1 0.080794 0.554178 0.749979
38 1 0.0722492 0.601157 0.927403
5 1 0.202068 0.675972 0.954145
226 1 0.200731 0.520737 0.887426
47 1 0.221833 0.631224 0.773551
322 2 0.313493 0.644161 0.896676
42 1 0.00174419 0.748518 0.93756
94 1 0.115086 0.975154 0.112032
90 1 0.31067 0.913942 0.125837
54 1 0.178878 0.82815 0.0747264
251 1 0.306721 0.803131 0.231276
29 1 0.163538 0.851886 0.230425
23 1 0.0193225 0.810562 0.0846559
250 1 0.00851782 0.851048 0.240515
106 1 0.239673 0.842359 0.373914
16 1 0.0801666 0.876481 0.372908
230 1 0.305932 0.965509 0.44958
280 1 0.0689906 1.00276 0.265603
143 1 0.160136 0.884925 0.499147
292 2 0.331927 0.754296 0.345793
290 2 0.230266 0.765558 0.736666
26 1 0.161503 0.85143 0.661306
15 1 0.270754 0.817204 0.557456
227 1 0.245364 0.972183 0.597443
255 1 0.00292544 0.837058 0.664973
151 1 0.30856 0.848253 0.703624
164 1 0.0269269 1.00048 0.749477
231 1 0.0835993 0.883714 0.966672
207 1 0.299866 0.762906 0.850831
293 2 0.211516 0.83459 0.92927
229 1 0.232028 0.965408 0.984182
108 1 0.137586 0.808942 0.826036
220 1 0.209883 0.9497 0.773037
224 1 0.323385 0.828806 0.993052
321 2 0.592006 0.0180039 0.217434
228 1 0.490896 0.0882641 0.210103
133 1 0.507248 0.15045 0.0489171
317 2 0.537913 0.207264 0.163965
131 1 0.63251 0.0956815 0.124771
345 2 0.506529 0.0159388 0.101386
105 1 0.389454 0.0511319 0.064566
359 2 0.366523 0.0234284 0.206716
142 1 0.419216 0.233714 0.219636
7 1 0.37384 0.248463 0.0649161
266 1 0.661631 0.24535 0.13582
139 1 0.419107 0.101638 0.440871
349 2 0.496959 0.165144 0.312211
198 1 0.583826 0.104775 0.419197
3 1 0.496928 -5.95216e-05 0.325115
183 1 0.639216 0.131362 0.267632
120 1 0.347076 0.0938544 0.310351
283 1 0.361823 0.237651 0.367501
281 1 0.668426 0.00192747 0.495963
178 1 0.512319 0.240449 0.422357
82 1 0.626309 0.14097 0.567173
191 1 0.354904 0.0933366 0.576937
327 2 0.531381 0.214533 0.685085
199 1 0.518866 0.0858193 0.708424
155 1 0.473527 0.193446 0.570076
59 1 0.509721 0.0294213 0.553713
71 1 0.3485 0.0275381 0.719887
315 2 0.351056 0.210412 0.510793
61 1 0.399057 0.18447 0.71433
274 1 0.654558 0.00393206 0.648563
276 1 0.638057 0.186383 0.735635
324 2 0.584989 0.243689 0.524376
124 1 0.534383 0.0179634 0.962492
126 1 0.373684 0.152953 0.920974
67 1 0.547067 0.152103 0.887342
8 1 0.439183 0.0477473 0.837121
200 1 0.623787 0.00393833 0.810724
122 1 0.62719 0.236481 0.990116
342 2 0.627781 0.239765 0.858195
313 2 0.400175 0.242079 0.831149
272 1 0.521262 0.432093 0.239093
51 1 0.520644 0.30921 0.0924982
73 1 0.380854 0.402476 0.179339
343 2 0.648432 0.369211 0.196661
360 2 0.483296 0.43509 0.112304
36 1 0.385401 0.400226 0.0293447
305 2 0.356553 0.446355 0.481405
55 1 0.501408 0.396393 0.400374
31 1 0.569153 0.269279 0.280264
107 1 0.349644 0.404249 0.345353
63 1 0.625358 0.362584 0.484445
309 2 0.450545 0.326957 0.288936
261 1 0.646161 0.39429 0.334392
110 1 0.498826 0.431547 0.563469
215 1 0.603025 0.30857 0.632364
141 1 0.549151 0.442012 0.720371
195 1 0.431521 0.323233 0.658626
311 2 0.421603 0.438949 0.736527
153 1 0.391143 0.330258 0.502184
11 1 0.606982 0.366211 0.887785
88 1 0.444324 0.409756 0.872979
81 1 0.469971 0.279678 0.939399
154 1 0.535718 0.446874 0.992587
76 1 0.522476 0.285201 0.787593
297 2 0.632499 0.344439 0.755333
87 1 0.401763 0.550322 0.116002
286 1 0.595726 0.521892 0.119792
150 1 0.643214 0.669012 0.015402
326 2 0.497457 0.564007 0.212319
104 1 0.398134 0.662015 0.233447
216 1 0.523906 0.661396 0.122033
140 1 0.372527 0.671811 0.0128403
257 1 0.602293 0.511303 0.449099
60 1 0.432188 0.534001 0.317294
259 1 0.435291 0.680761 0.384522
256 1 0.447659 0.545538 0.474006
306 2 0.537727 0.60427 0.393798
113 1 0.624417 0.544501 0.293491
160 1 0.552546 0.678765 0.278267
291 2 0.649727 0.739786 0.486273
254 1 0.39382 0.698178 0.539989
121 1 0.55711 0.648285 0.523995
97 1 0.506086 0.688845 0.682627
211 1 0.624568 0.516262 0.614532
222 1 0.430033 0.562749 0.636117
188 1 0.356811 0.682978 0.712374
223 1 0.659932 0.702408 0.620286
248 1 0.36543 0.527769 0.933592
127 1 0.50805 0.591157 0.995762
40 1 0.432839 0.669204 0.856298
277 1 0.351813 0.542418 0.777757
284 1 0.5436 0.527472 0.853565
289 2 0.473718 0.588003 0.752467
308 2 0.627324 0.62905 0.891667
1 1 0.579363 0.737649 0.836804
24 1 0.619505 0.613748 0.756003
147 1 0.508469 0.745962 0.976085
39 1 0.612389 0.941882 0.113954
203 1 0.412298 0.771628 0.123108
267 1 0.616026 0.789525 0.104991
304 2 0.515468 0.772803 0.190595
201 1 0.458504 0.929662 0.184615
93 1 0.456873 0.909589 0.0348102
22 1 0.387168 0.829958 0.441233
176 1 0.652241 0.9851 0.339998
135 1 0.346696 0.937732 0.301675
123 1 0.532052 0.913819 0.450336
91 1 0.451121 0.808149 0.301349
180 1 0.550614 0.764841 0.409661
21 1 0.586986 0.859567 0.266336
115 1 0.533947 0.802819 0.572583
246 1 0.40785 0.902171 0.570758
4 1 0.59951 0.824764 0.719624
303 2 0.565484 0.921734 0.601762
319 2 0.411823 0.789167 0.63252
260 1 0.479451 0.943435 0.703241
288 1 0.613716 0.879633 0.966862
213 1 0.518775 0.895506 0.844672
35 1 0.443596 0.793543 0.76274
218 1 0.347752 0.911483 0.853459
307 2 0.412232 0.814476 0.909427
333 2 0.646117 0.851932 0.837283
301 2 0.369353 0.993229 0.960276
177 1 0.910165 0.128371 0.0273701
112 1 0.81585 0.059085 0.129911
138 1 0.753874 0.172996 0.0377481
181 1 0.857216 0.212539 0.148166
68 1 0.964402 0.104128 0.194595
300 2 0.741851 0.150576 0.171097
329 2 0.820976 0.00234103 0.00977613
357 2 0.906117 0.195563 0.260239
346 2 0.979656 0.197837 0.460435
129 1 0.790595 0.109 0.272146
86 1 0.840403 0.195079 0.39023
134 1 0.943928 0.0805367 0.344903
339 2 0.709211 0.108498 0.377053
62 1 0.670335 0.232956 0.423131
253 1 0.803348 0.00444606 0.410449
194 1 0.796041 0.168621 0.641746
264 1 0.900049 0.0691661 0.688271
258 1 0.898424 0.23064 0.550017
354 2 0.929966 0.203976 0.674024
243 1 0.754306 0.0730633 0.743396
48 1 0.905047 0.0913105 0.503722
239 1 0.768681 0.124997 0.498579
206 1 0.707462 0.152815 0.877547
78 1 0.833665 0.080995 0.906116
125 1 0.87459 0.177494 0.797513
328 2 0.960781 0.0644735 0.829352
89 1 0.83997 0.241566 0.935229
168 1 0.98721 0.165382 0.901568
18 1 0.973617 0.0114489 0.948333
111 1 0.684002 0.0407029 0.986604
77 1 0.915569 0.324644 0.0483902
252 1 0.793555 0.346399 0.153813
165 1 0.955869 0.307692 0.209464
13 1 0.923649 0.446539 0.1571
358 2 0.759129 0.301883 0.0309364
149 1 0.816892 0.479895 0.0411391
9 1 0.729562 0.478374 0.191289
296 2 0.979934 0.435464 0.0232386
103 1 0.679426 0.391094 0.0670212
355 2 0.958561 0.430103 0.306729
235 1 0.774892 0.348787 0.408677
37 1 0.90988 0.490435 0.418957
237 1 0.94846 0.315552 0.3635
265 1 0.838138 0.401348 0.280781
159 1 0.73562 0.256707 0.268368
52 1 0.846471 0.324032 0.661466
347 2 0.823881 0.470287 0.629196
279 1 0.945778 0.449864 0.66382
353 2 0.711677 0.269762 0.664784
19 1 0.897586 0.394517 0.534538
156 1 0.740675 0.280794 0.546052
161 1 0.711977 0.40123 0.67715
100 1 0.748603 0.466323 0.522162
66 1 0.901336 0.427169 0.924935
269 1 0.835647 0.476831 0.785869
102 1 0.752868 0.377821 0.919139
14 1 0.931852 0.344028 0.796535
57 1 0.748864 0.302055 0.780337
294 2 0.978055 0.463352 0.78381
225 1 0.684014 0.47926 0.804618
356 2 0.789027 0.499978 0.898892
43 1 0.949876 0.55417 0.0126116
117 1 0.844408 0.592977 0.147899
212 1 0.930537 0.717875 0.210539
298 2 0.731453 0.576157 0.0874571
132 1 0.783568 0.735737 0.118101
202 1 0.919393 0.703231 0.0512393
172 1 0.674926 0.641319 0.177246
170 1 0.757924 0.513101 0.363831
171 1 0.843061 0.639581 0.421273
219 1 0.792578 0.648404 0.281313
137 1 0.953476 0.56807 0.297925
193 1 0.972562 0.724865 0.353504
312 2 0.829104 0.526377 0.258889
101 1 0.668426 0.655399 0.392336
84 1 0.825898 0.698625 0.630731
287 1 0.745889 0.572131 0.685487
46 1 0.88194 0.55768 0.553486
221 1 0.909466 0.588196 0.701651
234 1 0.725058 0.616186 0.525312
352 2 0.952224 0.700744 0.654589
209 1 0.929877 0.713977 0.52073
85 1 0.755251 0.6177 0.837688
30 1 0.865052 0.743762 0.873581
95 1 0.981648 0.706778 0.776231
130 1 0.925318 0.594202 0.859294
323 2 0.855144 0.682192 0.763747
208 1 0.798963 0.628806 0.987481
263 1 0.67655 0.522422 0.969024
238 1 0.745702 0.885061 0.0413054
83 1 0.878122 0.84932 0.122648
232 1 0.728968 0.964596 0.21027
295 2 0.715783 0.837234 0.178238
334 2 0.819159 0.779343 0.00133922
64 1 0.958625 0.97621 0.0960678
314 2 0.970885 0.94597 0.3562
275 1 0.870411 0.863103 0.394505
351 2 0.780429 0.909458 0.322494
190 1 0.831318 0.810028 0.26312
249 1 0.693657 0.848698 0.413533
12 1 0.684076 0.755887 0.28114
337 2 0.894517 0.95644 0.475464
341 2 0.775996 0.899507 0.498396
325 2 0.780093 0.758296 0.36629
241 1 0.98953 0.854182 0.484248
163 1 0.771451 0.754099 0.497331
80 1 0.886515 0.953812 0.25302
144 1 0.866694 0.846605 0.580892
49 1 0.679107 0.857157 0.561529
318 2 0.870742 0.93703 0.678669
332 2 0.766108 0.82067 0.660204
116 1 0.871693 0.814239 0.732376
285 1 0.957791 0.972068 0.589758
50 1 0.734194 0.916358 0.739734
233 1 0.800386 0.992864 0.59166
348 2 0.812213 0.848081 0.84259
145 1 0.888334 0.963679 0.814766
17 1 0.90263 0.868013 0.962922
74 1 0.746576 0.93391 0.889123
166 1 0.723256 0.779749 0.915909
32 1 0.982113 0.851714 0.827126
72 1 0.731463 0.751498 0.755828
ITEM: TIMESTEP
2000000
ITEM: NUMBER OF ATOMS
360
ITEM: BOX BOUNDS pp pp pp
0.0000000000000000e+00 6.6943295008216896e+00
0.0000000000000000e+00 6.6943295008216896e+00
0.0000000000000000e+00 6.6943295008216896e+00
ITEM: ATOMS id type xs ys zs
45 1 0.266563 0.0255636 0.0859374
28 1 0.104077 0.113887 0.160082
139 1 0.298028 0.135361 0.226583
358 2 0.215326 0.154425 0.112925
321 2 0.212733 0.0324207 0.202169
135 1 0.107719 0.233431 0.0497069
32 1 0.124401 0.0741731 0.00741112
74 1 0.00346506 0.0190093 0.100339
71 1 0.150727 0.0895516 0.484042
15 1 0.146675 0.0706748 0.30393
210 1 0.0914236 0.210701 0.382949
41 1 0.245728 0.173195 0.393901
310 2 0.0474722 0.150454 0.288242
106 1 0.268581 0.00396076 0.407473
165 1 0.176873 0.220758 0.253731
61 1 0.109118 0.128452 0.632707
187 1 0.266354 0.155828 0.541891
270 1 0.258951 0.153925 0.705972
136 1 0.234213 0.0169491 0.622178
236 1 0.0238389 0.191778 0.515963
118 1 0.000229799 0.0432793 0.532069
126 1 0.203944 0.0529301 0.849777
53 1 0.250306 0.168915 0.987899
262 1 0.100303 0.181519 0.904927
320 2 0.135364 0.205478 0.786239
285 1 0.0652336 0.0896906 0.77768
354 2 0.0796924 0.0245652 0.885612
20 1 0.332208 0.0415526 0.95447
254 1 0.330541 0.0199178 0.774082
316 2 0.24418 0.430227 0.119828
357 2 0.0244636 0.321976 0.0946417
77 1 0.147424 0.352319 0.167837
142 1 0.274214 0.282935 0.131503
68 1 0.0211791 0.255297 0.208907
269 1 0.214989 0.346395 0.0155271
102 1 0.0711462 0.403136 0.00546194
175 1 0.131899 0.491948 0.104974
346 2 0.245164 0.334582 0.239338
31 1 0.214256 0.461157 0.251498
306 2 0.24705 0.450259 0.370452
58 1 0.121402 0.458012 0.416202
312 2 0.287167 0.290422 0.441204
193 1 0.191273 0.332366 0.354118
237 1 0.0333068 0.376204 0.313671
170 1 0.0452547 0.346273 0.479356
256 1 0.257038 0.397368 0.484326
47 1 0.296753 0.478844 0.607402
148 1 0.0593557 0.421594 0.713133
244 1 0.147472 0.4221 0.591732
273 1 0.276162 0.293421 0.618697
146 1 0.133256 0.282225 0.679514
355 2 0.0352107 0.341535 0.605687
69 1 0.167018 0.258458 0.495953
277 1 0.2245 0.399643 0.742849
204 1 0.0601371 0.29802 0.814263
179 1 0.12267 0.43537 0.860355
224 1 0.276013 0.410052 0.895147
196 1 0.221555 0.274783 0.863957
359 2 0.123942 0.312585 0.941721
34 1 0.159493 0.656839 0.121233
350 2 0.0424031 0.725475 0.137321
248 1 0.283629 0.569813 0.122726
317 2 0.16101 0.574055 0.213725
182 1 0.00797342 0.579282 0.125522
251 1 0.246485 0.670881 0.240368
167 1 0.303143 0.747851 0.114655
242 1 0.0661133 0.647875 -0.000569427
56 1 0.198307 0.587682 0.363178
29 1 0.286547 0.68905 0.432868
117 1 0.0593164 0.619692 0.418596
27 1 0.322236 0.533392 0.446197
73 1 0.0912786 0.677291 0.260002
186 1 0.0581031 0.524436 0.271838
79 1 0.174955 0.543658 0.706086
197 1 0.187911 0.692004 0.646415
46 1 0.0421219 0.572547 0.639522
43 1 0.0285038 0.740147 0.626474
152 1 0.184149 0.57693 0.526509
40 1 0.316921 0.626646 0.580836
207 1 0.305443 0.619577 0.74201
360 2 0.0470935 0.527563 0.510004
157 1 0.141367 0.736107 0.509182
301 2 0.244484 0.50002 0.820205
279 1 0.0336953 0.558278 0.850794
25 1 0.114428 0.748565 0.897051
311 2 0.297985 0.691449 0.851987
169 1 0.192767 0.613207 0.844707
322 2 0.086145 0.52742 0.973027
5 1 0.246034 0.676211 0.989266
154 1 0.205541 0.512074 0.978205
95 1 0.0788826 0.678444 0.758914
54 1 0.0164021 0.860939 0.145872
293 2 0.252643 0.89108 0.158278
145 1 0.157665 0.804481 0.196445
44 1 0.146301 0.953887 0.119491
94 1 0.129298 0.789618 0.0467661
23 1 0.253928 0.877384 0.0304879
174 1 0.0701671 0.970749 0.406725
64 1 0.182356 0.918914 0.289462
212 1 0.0400775 0.816709 0.310404
128 1 0.174183 0.769197 0.362991
143 1 0.322561 0.966025 0.25043
227 1 0.191664 0.88105 0.472134
83 1 0.0244013 0.979326 0.249199
60 1 0.30328 0.815956 0.246888
274 1 0.32236 0.882001 0.69948
108 1 0.0423619 0.868969 0.536226
96 1 0.178763 0.866512 0.622307
217 1 0.297834 0.784154 0.555173
264 1 0.0701054 0.969978 0.670814
290 2 0.116237 0.965104 0.539906
303 2 0.310643 0.751183 0.674514
188 1 0.215476 0.76267 0.785264
231 1 0.141735 0.895907 0.924039
329 2 0.243312 0.80438 0.918116
151 1 0.0708583 0.828999 0.760956
90 1 0.313512 0.905026 0.877907
260 1 0.195179 0.922144 0.771779
319 2 0.0199773 0.84177 0.871887
294 2 0.218698 0.98549 0.977998
243 1 0.00443008 0.935271 0.966524
105 1 0.51648 0.177531 0.180197
230 1 0.443502 0.044493 0.205597
162 1 0.381374 0.136256 0.0920628
93 1 0.516283 0.0577904 0.0438765
122 1 0.639275 0.157056 0.0762801
315 2 0.379475 0.233015 0.185899
109 1 0.603219 0.0421152 0.169076
88 1 0.498712 0.215136 0.0240437
183 1 0.429864 0.158629 0.309247
246 1 0.563467 0.0925375 0.454601
339 2 0.579846 0.222489 0.296111
283 1 0.406156 0.131118 0.462856
129 1 0.563846 0.100406 0.302226
153 1 0.518307 0.244917 0.419161
331 2 0.343097 0.0723385 0.330911
37 1 0.66352 0.199399 0.397329
67 1 0.433376 0.193469 0.714249
220 1 0.372626 0.079117 0.614016
198 1 0.501036 0.190576 0.567372
206 1 0.602056 0.0816158 0.605302
191 1 0.500938 0.0525463 0.73327
324 2 0.372699 0.204915 0.606843
342 2 0.567817 0.161327 0.697404
313 2 0.615854 0.204981 0.514101
276 1 0.635763 0.177068 0.810362
168 1 0.471448 0.0613865 0.885711
131 1 0.630284 0.065743 0.915267
327 2 0.401788 0.155184 0.957598
133 1 0.48731 0.234691 0.872423
7 1 0.325941 0.158846 0.850363
336 2 0.505815 0.397238 0.180863
3 1 0.431196 0.323386 0.0976054
268 1 0.496565 0.489316 0.0868239
127 1 0.630753 0.440257 0.179201
103 1 0.582308 0.300279 0.120294
228 1 0.350529 0.451739 0.0349222
140 1 0.359609 0.402234 0.218458
51 1 0.479962 0.308495 0.270048
173 1 0.534423 0.401214 0.387863
62 1 0.643625 0.333426 0.289956
335 2 0.631294 0.317598 0.418274
247 1 0.379356 0.394253 0.384192
347 2 0.629266 0.457089 0.308676
2 1 0.329993 0.271593 0.314431
55 1 0.501249 0.493162 0.263271
178 1 0.557709 0.291231 0.715562
215 1 0.552672 0.332323 0.537749
245 1 0.436214 0.456827 0.524653
222 1 0.414589 0.362592 0.645912
223 1 0.542105 0.457184 0.656671
297 2 0.564592 0.465853 0.526869
352 2 0.636224 0.345789 0.637523