ITEM: TIMESTEP
0
ITEM: NUMBER OF ATOMS
360
ITEM: BOX BOUNDS pp pp pp
0.0000000000000000e+00 6.6943295008216896e+00
0.0000000000000000e+00 6.6943295008216896e+00
0.0000000000000000e+00 6.6943295008216896e+00
ITEM: ATOMS id type xs ys zs
348 2 0.260881 0.101843 0.142255
241 1 0.176887 0.154474 0.0558416
182 1 0.107132 0.0822897 0.165379
5 1 0.0491878 0.226567 0.21824
178 1 0.200305 0.209607 0.206726
90 1 0.0158036 0.162612 0.0731305
87 1 0.327227 0.0640509 0.0410774
141 1 0.310812 0.204952 0.0951186
40 1 0.0689614 0.0679306 0.319215
64 1 0.147999 0.193196 0.342374
1 1 0.2537 0.172018 0.461876
188 1 0.225732 0.0601695 0.29523
213 1 0.169976 0.0448599 0.452733
313 2 0.0119117 0.186918 0.332353
230 1 0.0393134 0.110087 0.455971
299 2 0.118346 0.206741 0.472141
359 2 0.191693 0.212877 0.680079
143 1 0.285322 0.131967 0.616104
288 1 0.125698 0.123818 0.588659
340 2 0.196159 0.0814228 0.702321
44 1 0.0199637 0.232727 0.643463
50 1 0.105092 0.145982 0.748788
61 1 0.137852 0.169389 0.894771
229 1 0.091829 0.0353923 0.986679
223 1 0.252829 0.176855 0.780701
260 1 0.192355 0.0340176 0.822825
168 1 0.00685648 0.077314 0.849264
317 2 0.23155 0.0938002 0.966532
255 1 0.32901 0.157148 0.913669
329 2 0.0300587 0.239719 0.791641
231 1 0.0464276 0.411914 0.0585924
309 2 0.305066 0.341891 0.0616028
222 1 0.194011 0.357062 0.132239
114 1 0.242895 0.468249 0.216744
265 1 0.330011 0.337996 0.215184
46 1 0.0806182 0.468967 0.201153
281 1 0.316608 0.484202 0.0799808
96 1 0.11188 0.285787 0.00353186
298 2 0.217265 0.450655 0.351389
94 1 0.176301 0.345852 0.277585
225 1 0.188979 0.313147 0.426039
194 1 0.0611332 0.458366 0.366593
142 1 0.132881 0.429237 0.498457
160 1 0.0406501 0.29951 0.360129
29 1 0.293391 0.251465 0.332567
3 1 0.166806 0.284013 0.576268
11 1 0.205664 0.457868 0.675991
59 1 0.0335076 0.313786 0.516772
284 1 0.0492314 0.432707 0.627025
86 1 0.276669 0.412414 0.529816
79 1 0.271123 0.317858 0.683408
344 2 0.311101 0.257764 0.57559
105 1 0.122172 0.300886 0.735661
129 1 0.207882 0.409357 0.828872
181 1 0.271792 0.285575 0.952375
245 1 0.0786149 0.353893 0.865138
80 1 0.0817883 0.495419 0.766014
42 1 0.192616 0.411939 0.98834
165 1 0.0848641 0.497779 0.930875
211 1 0.149746 0.520176 0.0811041
148 1 0.114133 0.68761 0.210528
69 1 0.0450165 0.710179 0.0589161
254 1 0.275438 0.60603 0.178315
93 1 0.196014 0.671051 0.0770965
91 1 0.00265954 0.570065 0.1106
322 2 0.0675162 0.593629 0.0129219
300 2 0.0572464 0.686503 0.331913
189 1 0.204728 0.665983 0.401538
76 1 0.253153 0.531607 0.437172
186 1 0.0632829 0.589174 0.450482
273 1 0.156562 0.558743 0.313817
9 1 0.275037 0.732112 0.278735
209 1 0.0107616 0.577495 0.271835
343 2 0.0663929 0.737718 0.60996
147 1 0.188496 0.568734 0.572044
134 1 0.328584 0.670379 0.523242
261 1 0.253183 0.682752 0.676164
201 1 0.0556111 0.602888 0.636908
332 2 0.0461189 0.518115 0.540994
7 1 0.1848 0.712459 0.546182
259 1 0.125689 0.66729 0.92587
161 1 0.233401 0.555429 0.958592
118 1 0.226403 0.574163 0.793666
28 1 0.250965 0.718726 0.848521
338 2 0.307944 0.652962 0.960554
353 2 0.0590714 0.59077 0.860828
279 1 0.118487 0.674574 0.762558
174 1 0.0422018 0.842245 0.185044
357 2 0.0783302 0.948932 0.101115
97 1 0.199023 0.983306 0.0894939
41 1 0.128849 0.952937 0.239032
98 1 0.194288 0.810025 0.148903
185 1 0.118454 0.868051 0.0220327
166 1 0.312845 0.99175 0.186018
53 1 0.332465 0.898276 0.0568596
162 1 0.269448 0.894113 0.313097
82 1 0.0414955 0.936682 0.406764
21 1 0.281334 0.794113 0.437705
302 2 0.161798 0.943678 0.352473
19 1 0.142323 0.812201 0.321754
224 1 0.170276 0.882567 0.477675
26 1 0.0727827 0.751759 0.46038
238 1 0.296073 0.986943 0.419637
335 2 0.214112 0.837883 0.586162
258 1 0.166063 0.83053 0.696606
101 1 0.0303034 0.848033 0.595231
216 1 0.304642 0.957021 0.563147
276 1 0.0206297 0.994589 0.551653
227 1 0.157326 0.974718 0.608641
271 1 0.255415 0.952428 0.719085
70 1 0.332763 0.816978 0.643423
137 1 0.0805508 0.975806 0.745254
234 1 0.0229558 0.928006 0.883655
262 1 0.170654 0.857289 0.855297
263 1 0.248589 0.968647 0.949388
251 1 0.258885 0.78559 0.982634
291 2 0.272892 0.823755 0.77071
36 1 0.0217909 0.807263 0.766199
164 1 0.469859 0.111427 0.158747
228 1 0.606739 0.177355 0.204959
22 1 0.564425 0.186179 0.029676
287 1 0.35002 0.13673 0.246687
316 2 0.577457 0.0635727 0.0244875
125 1 0.588617 0.0157525 0.193946
339 2 0.42513 0.163664 0.0347183
111 1 0.563474 0.0599629 0.34909
112 1 0.443488 0.141837 0.400521
352 2 0.483399 0.161655 0.269447
315 2 0.652068 0.029096 0.456757
153 1 0.595464 0.211567 0.354866
47 1 0.535563 0.0640789 0.553862
354 2 0.545862 0.0259374 0.684445
202 1 0.380021 0.193035 0.722304
92 1 0.529204 0.168229 0.670688
303 2 0.383123 0.0684228 0.514773
244 1 0.415921 0.0510241 0.655267
35 1 0.42382 0.175123 0.559134
253 1 0.625772 0.165591 0.5161
239 1 0.522024 0.216821 0.889993
103 1 0.464839 0.0821916 0.941458
264 1 0.515482 0.0578955 0.798187
304 2 0.427387 0.142154 0.823072
128 1 0.640009 0.112858 0.920205
16 1 0.358314 0.0297728 0.814976
301 2 0.623231 0.18014 0.810935
39 1 0.5771 0.359802 0.0678255
215 1 0.568376 0.490534 0.138078
10 1 0.438496 0.41325 0.131605
177 1 0.583761 0.344476 0.224819
195 1 0.456279 0.264267 0.164569
321 2 0.366563 0.4706 0.221549
13 1 0.647289 0.493089 0.0019229
278 1 0.420851 0.283787 0.00820456
270 1 0.587896 0.372685 0.376894
203 1 0.48545 0.462846 0.287256
100 1 0.352821 0.300315 0.462072
249 1 0.460109 0.292306 0.314817
24 1 0.659378 0.468782 0.286881
196 1 0.499317 0.41637 0.493911
107 1 0.508063 0.266172 0.461344
282 1 0.335628 0.409545 0.362845
144 1 0.501654 0.432561 0.68754
170 1 0.566911 0.323039 0.61768
106 1 0.634213 0.456896 0.555193
283 1 0.405577 0.333788 0.623952
306 2 0.403296 0.460435 0.590574
296 2 0.620542 0.407284 0.71914
247 1 0.585721 0.345614 0.91618
30 1 0.474301 0.477798 0.834412
179 1 0.343497 0.459005 0.750047
274 1 0.360261 0.317217 0.828491
355 2 0.456637 0.35396 0.900577
120 1 0.652528 0.296069 0.772695
248 1 0.49411 0.299048 0.757699
77 1 0.664518 0.46118 0.824056
277 1 0.33596 0.430367 0.934578
15 1 0.469994 0.459516 0.980948
193 1 0.428274 0.713732 0.22835
297 2 0.550365 0.573663 0.0362631
191 1 0.5402 0.665369 0.122016
220 1 0.42469 0.568004 0.171769
113 1 0.341152 0.721661 0.0987565
310 2 0.474528 0.715449 0.000905169
320 2 0.639436 0.673655 0.178476
23 1 0.421353 0.597667 0.0214243
314 2 0.464036 0.593954 0.350585
156 1 0.499127 0.655675 0.473179
167 1 0.385212 0.698591 0.376414
154 1 0.565525 0.597976 0.260372
173 1 0.338447 0.561498 0.322563
20 1 0.561174 0.518039 0.408961
218 1 0.655483 0.652143 0.399197
346 2 0.596203 0.746787 0.48613
308 2 0.6033 0.589353 0.498327
171 1 0.391438 0.536024 0.472441
140 1 0.337682 0.575919 0.633599
131 1 0.562405 0.720365 0.720786
210 1 0.437596 0.585294 0.735085
226 1 0.544602 0.573163 0.6042
175 1 0.442936 0.692592 0.61578
214 1 0.550865 0.649901 0.922434
293 2 0.601182 0.740824 0.853594
311 2 0.494313 0.674529 0.816699
55 1 0.40094 0.7202 0.90148
109 1 0.361689 0.579107 0.875185
157 1 0.587314 0.575998 0.76563
360 2 0.576707 0.524517 0.887803
307 2 0.333967 0.660137 0.777696
122 1 0.408234 0.749529 0.752715
123 1 0.473227 0.815168 0.0929029
71 1 0.366467 0.853826 0.208546
95 1 0.622789 0.92379 0.0479967
85 1 0.4647 0.975367 0.11519
37 1 0.536843 0.883416 0.231146
38 1 0.632958 0.786086 0.132798
347 2 0.559659 0.757734 0.232156
88 1 0.443424 0.990393 0.267761
280 1 0.580601 0.876314 0.449775
349 2 0.531423 0.941315 0.337802
51 1 0.425816 0.853922 0.357478
146 1 0.554641 0.755161 0.353807
333 2 0.361293 0.892019 0.468955
33 1 0.458781 0.982043 0.449692
207 1 0.432796 0.789655 0.494174
325 2 0.464215 0.809702 0.663563
212 1 0.448534 0.911868 0.587987
104 1 0.409901 0.914551 0.738064
2 1 0.572134 0.801122 0.588223
102 1 0.62946 0.954647 0.575137
250 1 0.557961 0.898017 0.708839
152 1 0.452628 0.907834 0.972079
163 1 0.665577 0.85741 0.804631
190 1 0.50905 0.834211 0.831265
294 2 0.464379 0.959178 0.856629
65 1 0.337082 0.86608 0.871238
74 1 0.569906 0.806095 0.964963
54 1 0.576678 0.956257 0.90506
331 2 0.38108 0.801278 0.987243
275 1 0.844493 0.184795 0.0455627
328 2 0.935337 0.228868 0.154959
206 1 0.78923 0.160649 0.187947
356 2 0.879507 0.101202 0.127676
269 1 0.698003 0.246542 0.1127
305 2 0.714779 0.0395142 0.208952
119 1 0.687191 0.096472 0.0862905
31 1 0.97226 0.0156222 0.145118
27 1 0.942766 0.115237 0.249729
81 1 0.700812 0.107938 0.313465
243 1 0.815409 0.0346073 0.367317
334 2 0.944204 0.0235699 0.378285
272 1 0.77205 0.221549 0.391252
342 2 0.824967 0.139959 0.308592
32 1 0.898819 0.157718 0.418296
68 1 0.761712 0.0939986 0.497824
336 2 0.930889 0.22667 0.543909
43 1 0.671627 0.0713994 0.656479
252 1 0.877601 0.111962 0.586731
289 2 0.775533 0.145815 0.646862
221 1 0.984497 0.0803206 0.680934
25 1 0.840934 0.0663564 0.728918
242 1 0.799749 0.24419 0.547238
266 1 0.673837 0.209236 0.644769
330 2 0.856167 0.103914 0.848681
14 1 0.683874 0.019461 0.805469
110 1 0.746499 0.151259 0.800764
138 1 0.78646 0.0907346 0.948087
145 1 0.921447 0.181876 0.762511
99 1 0.998823 0.215044 0.91476
121 1 0.838332 0.234173 0.889756
57 1 0.696222 0.238011 0.958022
127 1 0.944466 0.0611662 0.994537
169 1 0.866818 0.462698 0.0978586
208 1 0.96024 0.293205 0.0462724
319 2 0.916945 0.48108 0.21822
199 1 0.798097 0.420913 0.245896
124 1 0.837159 0.304086 0.152353
66 1 0.735708 0.379256 0.0483622
233 1 0.976132 0.363693 0.191536
351 2 0.702938 0.371145 0.166637
350 2 0.85163 0.331999 0.00963604
246 1 0.731238 0.37997 0.394565
48 1 0.914888 0.406769 0.337491
117 1 0.881801 0.306885 0.441201
326 2 0.826462 0.453708 0.424278
12 1 0.893649 0.270201 0.291319
176 1 0.941748 0.449821 0.491192
52 1 0.725219 0.281649 0.260582
62 1 0.90485 0.348279 0.597146
56 1 0.901197 0.497528 0.672005
204 1 0.729788 0.379943 0.666882
327 2 0.75787 0.385261 0.52412
150 1 0.815919 0.263282 0.700156
183 1 0.97225 0.357378 0.733726
116 1 0.670285 0.301261 0.503045
318 2 0.92049 0.474081 0.978212
34 1 0.823617 0.388671 0.787359
130 1 0.934815 0.365044 0.904359
324 2 0.717417 0.345525 0.875193
18 1 0.805139 0.438178 0.930357
17 1 0.938345 0.48298 0.822652
108 1 0.726091 0.518222 0.1437
49 1 0.864923 0.594947 0.191061
267 1 0.891964 0.685526 0.0418606
172 1 0.667344 0.645981 0.0353118
149 1 0.955956 0.711755 0.189061
236 1 0.769689 0.73005 0.149732
285 1 0.834836 0.71902 0.291959
295 2 0.95266 0.531742 0.396671
126 1 0.943553 0.671793 0.395122
8 1 0.859883 0.551167 0.328606
60 1 0.802413 0.648909 0.469916
180 1 0.70751 0.525421 0.437119
184 1 0.721607 0.614151 0.266058
78 1 0.929195 0.597133 0.533119
232 1 0.687614 0.525535 0.675397
268 1 0.813099 0.626426 0.642122
139 1 0.688971 0.671774 0.575072
83 1 0.800241 0.504849 0.541979
235 1 0.942233 0.703791 0.629897
84 1 0.847833 0.677157 0.878855
45 1 0.79868 0.538754 0.77739
136 1 0.961428 0.597295 0.941435
67 1 0.689921 0.598758 0.885333
135 1 0.702609 0.691383 0.764264
6 1 0.95414 0.628396 0.764741
292 2 0.776951 0.70202 0.993994
75 1 0.809576 0.572551 0.996888
257 1 0.708327 0.911978 0.17407
115 1 0.86653 0.85785 0.197044
200 1 0.827271 0.99791 0.226263
217 1 0.803845 0.842318 0.0459092
192 1 0.946971 0.829303 0.0688996
89 1 0.813799 0.99694 0.0680135
290 2 0.682567 0.794486 0.0268811
198 1 0.736441 0.933921 0.469104
312 2 0.831497 0.761965 0.410965
187 1 0.957296 0.943125 0.282975
197 1 0.82726 0.879105 0.348427
205 1 0.919127 0.805217 0.474673
151 1 0.986549 0.800364 0.331679
63 1 0.705983 0.792731 0.429369
240 1 0.892899 0.957699 0.470253
58 1 0.699088 0.779443 0.267315
237 1 0.685812 0.933618 0.321693
219 1 0.805864 0.798669 0.563826
286 1 0.705745 0.819946 0.668655
73 1 0.784838 0.956354 0.618102
256 1 0.93646 0.937582 0.688347
323 2 0.897944 0.901208 0.576198
341 2 0.681818 0.941239 0.700047
337 2 0.684299 0.834991 0.546788
132 1 0.841519 0.750049 0.727169
72 1 0.799398 0.907781 0.754093
159 1 0.738006 0.937555 0.930492
358 2 0.917107 0.863976 0.805009
133 1 0.832448 0.824716 0.888703
345 2 0.913821 0.920593 0.990648
4 1 0.704761 0.760859 0.910629
155 1 0.873087 0.980799 0.880606
158 1 0.987731 0.76231 0.914308
ITEM: TIMESTEP
60000
ITEM: NUMBER OF ATOMS
360
ITEM: BOX BOUNDS pp pp pp
0.0000000000000000e+00 6.6943295008216896e+00
0.0000000000000000e+00 6.6943295008216896e+00
0.0000000000000000e+00 6.6943295008216896e+00
ITEM: ATOMS id type xs ys zs
188 1 0.302755 0.0472866 0.154604
87 1 0.181393 0.15544 0.114386
331 2 0.0392688 0.0568462 0.0891914
182 1 0.0581624 0.161204 0.00812476
264 1 0.307972 0.0470465 0.00323179
271 1 0.0564149 0.121378 0.196937
265 1 0.299701 0.198087 0.221257
224 1 0.140535 0.161437 0.484971
64 1 0.257784 0.190486 0.370084
113 1 0.0694806 0.020464 0.338748
302 2 0.0931956 0.0393611 0.465111
88 1 0.203201 0.0235957 0.407907
230 1 0.0511506 0.178207 0.353561
189 1 0.327475 0.0525883 0.31587
287 1 0.18462 0.101564 0.278167
50 1 0.191209 0.213812 0.625561
100 1 0.272198 0.0630869 0.677154
117 1 0.0400422 0.16571 0.625316
260 1 0.135545 0.0509451 0.586917
244 1 0.286908 0.12059 0.53292
354 2 0.171008 0.00805084 0.742826
61 1 0.150716 0.12619 0.747245
274 1 0.290658 0.192078 0.958956
105 1 0.293866 0.190223 0.767065
65 1 0.219913 0.0564805 0.865156
298 2 0.186875 0.112252 0.990499
263 1 0.0529427 0.0789586 0.869749
99 1 0.152029 0.206425 0.890299
245 1 0.0356857 0.243121 0.78501
178 1 0.330509 0.282245 0.0773875
160 1 0.27696 0.34995 0.224958
241 1 0.179206 0.4278 0.14088
229 1 0.0625313 0.272232 0.126688
233 1 0.0300142 0.435305 0.213481
97 1 0.172025 0.303382 0.0219093
231 1 0.0429547 0.414437 0.058674
334 2 0.207413 0.287558 0.139037
329 2 0.277666 0.380499 0.00980546
273 1 0.196119 0.461388 0.297761
29 1 0.0871528 0.308362 0.399179
47 1 0.258313 0.349661 0.373491
213 1 0.177972 0.436084 0.469955
142 1 0.307274 0.495893 0.400703
314 2 0.109679 0.3791 0.299007
238 1 0.149163 0.258112 0.263942
313 2 0.0415183 0.42147 0.462524
211 1 0.107923 0.501357 0.590658
59 1 0.224118 0.388767 0.615353
284 1 0.0805933 0.333448 0.562863
17 1 0.0848924 0.395164 0.697481
3 1 0.245321 0.28677 0.505787
344 2 0.190811 0.43251 0.803165
223 1 0.296892 0.328773 0.896742
11 1 0.318477 0.452954 0.793409
5 1 0.109172 0.35846 0.877727
322 2 0.311665 0.327886 0.763291
143 1 0.188325 0.313429 0.752789
42 1 0.181026 0.475797 0.965767
96 1 0.0798314 0.506384 0.814662
94 1 0.140309 0.595938 0.0613297
98 1 0.265251 0.66259 0.153814
185 1 0.0935974 0.568234 0.220566
19 1 0.112458 0.727711 0.166213
328 2 0.0700137 0.721057 0.0432266
312 2 0.216534 0.53484 0.185084
299 2 0.0107701 0.540315 0.118061
222 1 0.288384 0.515736 0.0913476
93 1 0.214311 0.749681 0.0426911
281 1 0.326407 0.516559 0.247276
333 2 0.290186 0.603996 0.452985
225 1 0.161598 0.612845 0.476355
26 1 0.108356 0.713209 0.323999
173 1 0.231209 0.621571 0.32526
148 1 0.000939634 0.656165 0.416581
147 1 0.238668 0.743861 0.409346
48 1 0.0588928 0.518194 0.370336
80 1 0.196517 0.519152 0.706273
256 1 0.196538 0.651211 0.629584
135 1 -0.00306987 0.711581 0.709694
210 1 0.316525 0.621116 0.714075
358 2 0.089601 0.60296 0.683777
176 1 0.27574 0.512769 0.544469
126 1 0.0407841 0.66471 0.581582
167 1 0.331596 0.664993 0.561727
277 1 0.265316 0.721386 0.88103
261 1 0.233602 0.571295 0.855845
166 1 0.333155 0.623992 0.998371
161 1 0.126447 0.668389 0.931475
7 1 0.138157 0.678966 0.775373
332 2 0.0386028 0.752357 0.837422
46 1 0.000706566 0.547938 0.983732
187 1 0.0803961 0.863552 0.0581092
71 1 0.228222 0.905068 0.0595613
193 1 0.318687 0.867112 0.170587
335 2 0.153148 0.851176 0.164729
82 1 0.0507109 0.871995 0.244294
40 1 0.124077 0.986706 0.14115
300 2 0.235119 0.860385 0.457602
36 1 0.100623 0.782202 0.487521
76 1 0.139727 0.86509 0.367678
154 1 0.228557 0.778453 0.258304
23 1 0.310077 0.886869 0.345171
41 1 0.21353 0.956585 0.247849
291 2 0.0347958 0.971482 0.593184
132 1 0.247392 0.79456 0.567869
53 1 0.0440245 0.992191 0.728558
258 1 0.172865 0.89938 0.669097
43 1 0.287028 0.965728 0.536884
288 1 0.0497454 0.842579 0.613579
279 1 0.252188 0.77099 0.734628
162 1 0.134684 0.921206 0.516643
70 1 0.325458 0.911869 0.666852
336 2 0.149861 0.771932 0.645944
155 1 0.0772571 0.846574 0.771281
251 1 0.321918 0.842244 0.946034
28 1 0.244749 0.904352 0.81719
259 1 0.150432 0.839529 0.90798
317 2 0.122472 0.957625 0.863386
262 1 0.00261305 0.882116 0.897129
310 2 0.245607 0.949355 0.938994
255 1 0.127771 0.998704 0.987804
22 1 0.595275 0.0861562 0.0488438
357 2 0.587484 0.188922 0.137721
195 1 0.458591 0.157058 0.147107
316 2 0.427724 0.0539191 0.225243
152 1 0.445622 0.0296983 0.0506519
95 1 0.552923 0.0537338 0.212179
321 2 0.34056 0.148863 0.0960721
153 1 0.53849 0.166077 0.448203
249 1 0.616125 0.168614 0.315401
348 2 0.553239 0.042421 0.391156
1 1 0.388925 0.235393 0.427952
227 1 0.395263 0.0438452 0.453695
54 1 0.463526 0.150356 0.310826
129 1 0.550419 0.12074 0.654528
359 2 0.379062 0.144719 0.66623
216 1 0.412919 0.0305822 0.610661
118 1 0.434739 0.177478 0.563284
297 2 0.658428 0.214785 0.687635
79 1 0.445762 0.214992 0.741863
340 2 0.65417 0.0613965 0.604757
342 2 0.546839 0.226641 0.57847
102 1 0.535695 0.039449 0.524285
304 2 0.348727 0.107396 0.861618
110 1 0.586657 0.229121 0.95327
315 2 0.550605 0.0616162 0.768843
202 1 0.478935 0.102538 0.862455
301 2 0.503445 0.0218954 0.94001
266 1 0.628039 0.067508 0.883163
104 1 0.592452 0.194727 0.799361
16 1 0.398805 0.0314518 0.759062
190 1 0.444558 0.164917 0.993148
114 1 0.427855 0.416084 0.12369
57 1 0.512386 0.279298 0.0881716
228 1 0.570565 0.29649 0.220436
339 2 0.556765 0.379739 0.132176
10 1 0.625298 0.406272 0.0146562
112 1 0.418909 0.291992 0.219459
308 2 0.474019 0.491585 0.00875863
218 1 0.504048 0.452045 0.248048
196 1 0.521523 0.294958 0.357144
20 1 0.520651 0.438524 0.450144
177 1 0.634423 0.400352 0.36241
203 1 0.408355 0.396706 0.355048
303 2 0.47669 0.32014 0.47147
352 2 0.337603 0.271855 0.309596
270 1 0.593672 0.314918 0.493363
283 1 0.477524 0.329362 0.612979
165 1 0.338512 0.265058 0.650074
175 1 0.533573 0.482584 0.605033
360 2 0.552778 0.279402 0.711402
140 1 0.376302 0.456253 0.64329
282 1 0.363607 0.390326 0.500775
204 1 0.657209 0.325962 0.63054
67 1 0.559868 0.347795 0.853638
141 1 0.551975 0.4895 0.907416
239 1 0.430546 0.252433 0.878107
350 2 0.439735 0.439006 0.871142
144 1 0.438993 0.366573 0.767978
214 1 0.456018 0.368434 0.975506
278 1 0.34462 0.480633 0.942059
86 1 0.572508 0.46078 0.740361
38 1 0.426712 0.611498 0.135116
184 1 0.652122 0.578389 0.20604
109 1 0.570541 0.67199 0.116319
215 1 0.549508 0.510741 0.111393
309 2 0.515494 0.590954 0.219975
58 1 0.59222 0.562054 0.374123
254 1 0.394956 0.693506 0.419437
346 2 0.508955 0.628913 0.44206
191 1 0.447512 0.571829 0.340978
37 1 0.5829 0.723844 0.427434
285 1 0.532524 0.696359 0.282207
212 1 0.380149 0.675254 0.262188
220 1 0.424968 0.54595 0.50074
171 1 0.46129 0.600327 0.654058
343 2 0.550698 0.719056 0.652711
280 1 0.603738 0.617638 0.54404
139 1 0.615918 0.613046 0.707073
51 1 0.48503 0.707526 0.551224
306 2 0.45172 0.500455 0.742102
179 1 0.415814 0.57876 0.847625
325 2 0.367399 0.732322 0.787903
293 2 0.643694 0.720634 0.775998
307 2 0.538372 0.568625 0.808552
170 1 0.494541 0.701646 0.77285
123 1 0.426024 0.738907 0.913331
226 1 0.610766 0.657965 0.879979
15 1 0.484252 0.621279 0.979646
181 1 0.637548 0.583197 1.00877
305 2 0.539902 0.956885 0.0923761
85 1 0.462598 0.7709 0.175144
236 1 0.585494 0.834118 0.127163
74 1 0.467805 0.871626 0.00965651
33 1 0.448675 0.935765 0.187756
172 1 0.366678 0.761371 0.0638807
338 2 0.360203 0.926271 0.0793868
311 2 0.507735 0.744549 0.031549
21 1 0.369409 0.839398 0.478442
296 2 0.620431 0.795949 0.32396
349 2 0.494057 0.808057 0.470104
125 1 0.458557 0.828057 0.343819
111 1 0.58013 0.906739 0.413005
35 1 0.45864 0.98124 0.331126
290 2 0.338354 0.774458 0.342824
192 1 0.578186 0.908578 0.261284
157 1 0.571197 0.822256 0.741928
207 1 0.395303 0.77464 0.653906
134 1 0.475294 0.88943 0.576607
2 1 0.608594 0.811664 0.534224
198 1 0.574446 0.957768 0.682356
337 2 0.460499 0.927034 0.709073
92 1 0.518843 0.948134 0.833155
4 1 0.580538 0.791083 0.937454
122 1 0.392614 0.855917 0.797681
294 2 0.505991 0.832117 0.852093
103 1 0.381881 0.974459 0.90375
163 1 0.603334 0.943247 0.97345
269 1 0.68971 0.132104 0.177431
183 1 0.926164 0.129668 0.0908027
127 1 0.824933 0.22964 0.191734
31 1 0.821711 0.0237939 0.04362
81 1 0.808295 0.0401613 0.19159
247 1 0.835219 0.250985 0.043353
330 2 0.691833 0.0272563 0.00699131
119 1 0.9315 0.107938 0.282313
206 1 0.774446 0.140194 0.309829
27 1 0.97183 0.0781736 0.4497
237 1 0.825905 0.0215569 0.389896
25 1 0.670775 0.0818897 0.437481
272 1 0.838634 0.137589 0.504673
164 1 0.664167 0.0247826 0.3048
44 1 0.944837 0.121596 0.743201
116 1 0.792125 0.183738 0.67985
137 1 0.785165 0.0350815 0.597601
252 1 0.940442 0.0517759 0.591742
341 2 0.90178 0.181525 0.614833
250 1 0.678941 0.0737798 0.730287
242 1 0.958775 0.228144 0.490745
253 1 0.66996 0.183227 0.555173
327 2 0.914822 -0.0215642 0.699639
356 2 0.81959 0.0802588 0.781465
221 1 0.886428 0.144281 0.922699
128 1 0.754887 0.175719 0.842783
145 1 0.918694 -0.00278504 0.834273
319 2 0.831192 0.247101 0.918379
150 1 0.774903 0.0169177 0.888206
138 1 0.736344 0.148798 1.01969
90 1 0.978232 0.0167524 0.984224
39 1 0.666749 0.425391 0.200778
208 1 0.925888 0.32918 0.120837
24 1 0.7759 0.401461 0.0850571
124 1 0.673789 0.272919 0.0957568
194 1 0.892334 0.496333 0.13455
8 1 0.823019 0.386941 0.233316
199 1 0.711025 0.295928 0.273564
209 1 0.961255 0.397527 0.358401
246 1 0.784449 0.386326 0.396943
275 1 0.987878 0.281803 0.263742
52 1 0.717656 0.254264 0.419015
12 1 0.869308 0.252878 0.356151
62 1 0.807896 0.361117 0.655647
107 1 0.805664 0.27499 0.539113
106 1 0.931693 0.372014 0.506507
326 2 0.721914 0.372624 0.517075
120 1 0.685745 0.48335 0.632237
347 2 0.690697 0.432555 0.749809
78 1 0.95053 0.295468 0.647713
318 2 0.975988 0.432299 0.634234
248 1 0.862042 0.493187 0.603953
75 1 0.754417 0.483411 0.959401
13 1 0.713817 0.310176 0.942943
121 1 0.887634 0.392552 0.994644
55 1 0.822354 0.376255 0.857554
66 1 0.880604 0.264944 0.782574
30 1 0.695108 0.303913 0.791446
130 1 0.98843 0.289178 0.937957
355 2 0.670157 0.406262 0.88039
34 1 0.968214 0.390935 0.799952
353 2 0.992177 0.413475 0.929115
292 2 0.875743 0.526901 0.00336017
49 1 0.76992 0.582387 0.0772978
108 1 0.830694 0.650548 0.20197
320 2 0.710416 0.682643 0.152897
9 1 0.960679 0.65652 0.080929
18 1 0.67338 0.734703 0.0363011
351 2 0.674313 0.495002 0.0856446
295 2 0.76371 0.508185 0.176489
60 1 0.729302 0.659772 0.458275
63 1 0.69578 0.671797 0.308997
240 1 0.846954 0.649384 0.361835
156 1 0.763081 0.515725 0.311214
205 1 0.931022 0.526647 0.291155
180 1 0.852303 0.506404 0.439381
219 1 0.704222 0.503221 0.487654
149 1 0.977113 0.66708 0.259012
324 2 0.861691 0.612172 0.698995
6 1 0.973043 0.5537 0.69087
235 1 0.754847 0.615989 0.62103
56 1 0.814735 0.507607 0.750957
232 1 0.874315 0.642519 0.522328
268 1 0.854687 0.726293 0.654916
83 1 0.987701 0.532232 0.508476
131 1 0.673061 0.748477 0.65502
91 1 0.888947 0.734138 0.820361
169 1 0.677654 0.524053 0.827052
136 1 0.90378 0.514029 0.880793
345 2 0.728031 0.609326 0.902155
267 1 0.8502 0.65017 0.945747
77 1 0.75974 0.655376 0.784497
69 1 1.00144 0.619704 0.83283
158 1 0.988858 0.720937 0.94935
151 1 0.953573 0.79417 0.158205
200 1 0.814246 0.895178 0.139065
89 1 0.683087 0.967796 0.143453
234 1 0.953294 0.978176 0.152453
217 1 0.711898 0.795827 0.198864
168 1 0.922756 0.873755 0.0248936
159 1 0.8235 0.770943 0.0616773
243 1 0.781168 0.929565 0.28976
201 1 0.938926 0.942694 0.315983
186 1 0.853378 0.884136 0.437593
323 2 0.84099 0.752883 0.439402
115 1 0.967251 0.801825 0.379721
101 1 0.995608 0.928364 0.476354
146 1 0.732036 0.806695 0.382357
257 1 0.85742 0.799582 0.273144
32 1 0.723248 0.938501 0.477509
84 1 0.922962 0.872543 0.745113
73 1 0.865051 0.899167 0.613167
197 1 0.774991 0.794536 0.541109
68 1 0.700613 0.91038 0.628513
276 1 0.938669 0.777723 0.529772
72 1 0.79605 0.965068 0.738524
289 2 0.850078 0.980251 0.513678
286 1 0.768193 0.820292 0.746462
14 1 0.665984 0.912948 0.831396
174 1 0.836147 0.877661 0.884308
133 1 0.738109 0.881248 1.00469
45 1 0.740258 0.76286 0.887293
ITEM: TIMESTEP
120000
ITEM: NUMBER OF ATOMS
360
ITEM: BOX BOUNDS pp pp pp
0.0000000000000000e+00 6.6943295008216896e+00
0.0000000000000000e+00 6.6943295008216896e+00
0.0000000000000000e+00 6.6943295008216896e+00
ITEM: ATOMS id type xs ys zs
319 2 0.144156 0.202209 0.0189644
321 2 0.23737 0.076872 0.101619
178 1 0.166433 0.17463 0.140632
203 1 0.271999 0.243359 0.0374093
160 1 0.21509 0.0201101 0.21354
156 1 0.0388662 0.209273 0.206492
188 1 0.133179 0.00974601 0.0796319
40 1 0.0446797 0.0522795 0.222878
265 1 0.300648 0.150759 0.186661
238 1 0.0561895 0.158303 0.351999
331 2 0.167899 0.12398 0.269223
281 1 0.185139 0.258528 0.267175
76 1 0.292455 0.109122 0.320865
284 1 0.184925 0.192717 0.42824
233 1 0.0406903 0.23435 0.481445
258 1 0.246614 0.0513371 0.47888
59 1 0.230705 0.243657 0.728558
244 1 0.281927 0.0844883 0.727694
44 1 0.15382 0.0334756 0.645288
336 2 0.277908 0.0198121 0.613169
318 2 0.145056 0.159351 0.719255
88 1 0.162127 0.171091 0.575141
17 1 0.0507949 0.249144 0.662949
230 1 0.000585911 0.0848395 0.653221
101 1 0.0655097 0.0800901 0.503353
50 1 0.182266 0.11122 0.835869
224 1 0.0139587 0.0802872 0.798865
262 1 0.0659727 0.124382 0.948881
143 1 0.218475 0.0740703 0.977572
99 1 0.203033 0.239755 0.909623
117 1 0.0772644 0.231091 0.817332
332 2 0.107866 0.0154202 0.885604
350 2 0.232531 0.304683 0.160437
271 1 0.108848 0.31346 0.107229
241 1 0.0531952 0.432968 0.0248237
191 1 0.158626 0.458775 0.15128
57 1 0.316111 0.383699 0.0984343
352 2 0.111587 0.362985 0.225212
112 1 0.131001 0.355254 0.37046
106 1 0.271685 0.331697 0.450452
314 2 0.0441688 0.358291 0.47527
209 1 0.240672 0.478764 0.384314
47 1 0.26167 0.402267 0.244386
94 1 0.10428 0.469973 0.301287
302 2 0.293242 0.253495 0.335257
354 2 0.199139 0.430053 0.595545
176 1 0.2981 0.394577 0.703358
213 1 0.141469 0.365555 0.705068
48 1 0.317786 0.4595 0.540222
29 1 0.143942 0.319374 0.555327
204 1 0.298628 0.28029 0.58551
222 1 0.120321 0.458146 0.505249
308 2 0.302827 0.48434 0.77683
5 1 0.0844895 0.416023 0.870377
223 1 0.234668 0.383361 0.835393
329 2 0.22116 0.487405 0.916255
229 1 0.0402603 0.268425 0.962765
304 2 0.335956 0.293338 0.799928
96 1 0.330242 0.458001 0.939349
97 1 0.202145 0.388596 1.00161
277 1 0.208354 0.697528 0.102628
273 1 0.308593 0.529599 0.137084
98 1 0.134804 0.60766 0.197523
42 1 0.0421963 0.678351 0.0814993
172 1 0.139884 0.567776 0.0376516
46 1 0.0105108 0.539699 0.144644
154 1 0.289551 0.67412 0.225837
193 1 0.326327 0.603677 0.0185116
322 2 0.221572 0.530192 0.258003
290 2 0.181617 0.714141 0.256313
173 1 0.194175 0.645785 0.370279
300 2 0.119547 0.545859 0.401056
149 1 0.0455576 0.657413 0.322255
339 2 0.315547 0.650377 0.346966
167 1 0.296565 0.709371 0.485137
147 1 0.0755114 0.639226 0.480739
324 2 0.100719 0.605788 0.750913
56 1 0.239533 0.534626 0.65613
211 1 0.132952 0.653854 0.61579
225 1 0.214499 0.574377 0.50624
3 1 0.0828626 0.505576 0.665177
69 1 0.21303 0.660671 0.74518
161 1 0.299474 0.592402 0.847206
135 1 0.00874495 0.544498 0.80605
34 1 0.0650975 0.690121 0.856864
358 2 0.105783 0.55042 0.903172
144 1 0.161298 0.507755 0.788267
93 1 0.204554 0.680648 0.927174
82 1 0.0996496 0.921954 0.212361
71 1 0.296485 0.813316 0.0234523
23 1 0.255042 0.825866 0.194225
317 2 0.0113491 0.983876 0.130828
114 1 0.154338 0.852161 0.0777012
124 1 0.295201 0.969136 0.0681622
36 1 0.087449 0.7627 0.202552
316 2 0.213137 0.909716 0.291281
21 1 0.130034 0.805156 0.349418
334 2 0.0409283 0.914539 0.321484
212 1 0.280622 0.788778 0.350629
189 1 0.225232 0.896047 0.433754
113 1 0.0702697 0.91052 0.466278
195 1 0.338328 0.965698 0.306963
287 1 0.134712 1.00621 0.348761
310 2 0.159276 0.963608 0.541441
145 1 0.0686525 0.91533 0.621939
132 1 0.164513 0.816544 0.683214
91 1 0.0243523 0.771747 0.734008
162 1 0.262797 0.898506 0.580722
348 2 0.0594482 0.992331 0.718133
7 1 0.304351 0.882141 0.725366
11 1 0.298174 0.753501 0.629389
288 1 0.0177267 0.759936 0.579581
256 1 0.164742 0.771132 0.512317
259 1 0.185202 0.808682 0.83125
84 1 0.0485226 0.893672 0.818842
264 1 0.206328 0.908177 0.93951
158 1 0.0785234 0.802361 0.958942
53 1 0.170141 0.955584 0.771596
292 2 0.28566 0.771374 0.899101
87 1 0.045921 0.955981 0.976511
263 1 0.301901 0.991088 0.839719
49 1 0.464393 0.166026 0.129873
127 1 0.591856 0.20764 0.0518948
81 1 0.607803 0.0645532 0.13058
347 2 0.64111 0.185084 0.172955
303 2 0.350976 0.0196285 0.165501
307 2 0.394306 0.242477 0.0751669
39 1 0.351859 0.114422 0.0421816
22 1 0.448454 0.0555467 0.23684
35 1 0.477478 0.125975 0.448685
357 2 0.411681 0.0695168 0.352146
1 1 0.431005 0.206904 0.316202
164 1 0.653116 0.249994 0.343989
196 1 0.568185 0.164574 0.262522
54 1 0.343061 0.191783 0.448632
95 1 0.66062 0.030241 0.27346
206 1 0.636323 0.116229 0.394173
327 2 0.466661 0.246047 0.442556
249 1 0.398493 0.0110968 0.470287
283 1 0.487037 0.183411 0.595611
349 2 0.501271 0.220995 0.720949
359 2 0.476312 0.0565603 0.582165
227 1 0.433161 0.111539 0.73859
102 1 0.56048 0.0310131 0.673566
197 1 0.59597 0.0928018 0.541229
250 1 0.664638 0.185138 0.654712
260 1 0.336762 0.130403 0.583407
313 2 0.358582 0.191307 0.69323
134 1 0.593963 0.238922 0.494541
14 1 0.544191 0.132269 0.84357
16 1 0.465151 0.185675 0.957656
301 2 0.589021 0.0146571 0.833528
269 1 0.557627 0.0574723 0.973219
61 1 0.415969 0.0233755 0.933508
104 1 0.337243 0.154739 0.858312
20 1 0.522983 0.301796 0.204921
218 1 0.548451 0.441719 0.137514
67 1 0.645698 0.37375 0.0362613
110 1 0.486035 0.320875 0.0549388
228 1 0.425054 0.438108 0.216613
141 1 0.372301 0.281201 0.19579
199 1 0.426889 0.48521 0.0595931
175 1 0.481794 0.479554 0.372411
118 1 0.37237 0.351205 0.339326
30 1 0.595826 0.416495 0.477644
120 1 0.652118 0.397259 0.34175
333 2 0.545943 0.429932 0.272499
282 1 0.524716 0.328976 0.365729
346 2 0.363321 0.451529 0.415608
210 1 0.453583 0.460542 0.665869
239 1 0.422702 0.309027 0.683375
86 1 0.599661 0.490366 0.625268
253 1 0.564445 0.326917 0.625772
79 1 0.433968 0.375824 0.505989
278 1 0.496606 0.412226 0.928028