ITEM: TIMESTEP
0
ITEM: NUMBER OF ATOMS
360
ITEM: BOX BOUNDS pp pp pp
0.0000000000000000e+00 6.6943295008216896e+00
0.0000000000000000e+00 6.6943295008216896e+00
0.0000000000000000e+00 6.6943295008216896e+00
ITEM: ATOMS id type xs ys zs
256 1 0.109288 0.162632 0.0739966
194 1 0.320516 0.173152 0.121463
348 2 0.215821 0.0754933 0.0841609
82 1 0.219371 0.102798 0.198847
253 1 0.0206904 0.177456 0.183554
146 1 0.0990112 0.0159193 0.177194
127 1 0.129601 0.195465 0.298536
182 1 0.00371272 0.113904 0.303566
51 1 0.200975 0.0654504 0.362229
304 2 0.191696 0.164384 0.412631
71 1 0.293768 0.180302 0.308982
128 1 0.0827234 0.136033 0.449194
234 1 0.10982 0.224326 0.570259
86 1 0.132699 0.0723659 0.597603
176 1 0.247187 0.198587 0.636754
354 2 0.147098 0.141308 0.707806
66 1 0.271525 0.074923 0.703922
341 2 0.0154027 0.137279 0.66054
118 1 0.256466 0.136568 0.512967
243 1 0.0492952 0.100316 0.77827
3 1 0.0328254 0.113149 0.938491
346 2 0.0510045 0.216292 0.831121
359 2 0.141021 0.104115 0.975365
258 1 0.215376 0.054462 0.847952
261 1 0.162449 0.19763 0.851885
227 1 0.271011 0.119357 0.971385
333 2 0.257672 0.244349 0.760534
181 1 0.328913 0.157146 0.828125
198 1 0.29933 0.473896 0.0443782
255 1 0.170542 0.433265 0.207371
313 2 0.306236 0.396067 0.214848
263 1 0.316291 0.325292 0.0815902
230 1 0.125159 0.363755 0.0847998
5 1 0.0528916 0.329349 0.210316
210 1 0.185525 0.255801 0.17326
342 2 0.226058 0.381299 0.016132
97 1 0.201813 0.255432 0.0159443
212 1 0.218557 0.332718 0.306512
160 1 0.145055 0.283303 0.436854
136 1 0.244143 0.482716 0.333112
307 2 0.0486345 0.403423 0.471968
193 1 0.0588786 0.355998 0.354073
200 1 0.300418 0.277581 0.425189
338 2 0.282188 0.404707 0.433685
205 1 0.00213571 0.265912 0.475519
134 1 0.297037 0.456777 0.590701
265 1 0.123877 0.496946 0.654438
335 2 0.315348 0.315015 0.568126
202 1 0.190802 0.345517 0.618568
48 1 0.0369938 0.369712 0.596452
310 2 0.0851384 0.398393 0.722099
42 1 0.297783 0.365069 0.748487
166 1 0.0957537 0.256411 0.725027
259 1 0.168302 0.43995 0.509651
231 1 0.29836 0.443593 0.8833
249 1 0.264295 0.29739 0.886289
260 1 0.0599488 0.277972 0.957494
90 1 0.166051 0.459618 0.948573
132 1 0.155746 0.35692 0.824911
326 2 0.192693 0.443049 0.75218
175 1 0.0554532 0.487977 0.819448
345 2 0.222465 0.648276 0.106169
111 1 0.157057 0.596469 0.225569
101 1 0.135725 0.706316 0.0376009
274 1 0.305365 0.519066 0.183296
220 1 0.0350317 0.610565 0.130286
244 1 0.163296 0.536185 0.0899732
228 1 0.109704 0.735087 0.183212
180 1 0.306274 0.663833 0.246491
49 1 0.249819 0.631298 0.397733
229 1 0.0845636 0.674282 0.335935
284 1 0.321108 0.523164 0.47014
278 1 0.0623975 0.699505 0.489139
85 1 0.0403597 0.506532 0.269636
285 1 0.121516 0.536527 0.40384
300 2 0.241792 0.54389 0.694712
117 1 0.150741 0.638962 0.731493
254 1 0.0439128 0.684786 0.637619
73 1 0.323666 0.672834 0.527609
286 1 0.29712 0.657181 0.689161
87 1 0.197242 0.592415 0.5495
141 1 0.0317505 0.520947 0.527336
262 1 0.196372 0.701942 0.845442
272 1 0.043147 0.691292 0.817476
28 1 0.241231 0.610581 0.964722
149 1 0.203151 0.542055 0.827748
91 1 0.0629101 0.560474 0.983782
360 2 0.0203612 0.681064 0.953338
124 1 0.130994 0.8545 0.0782331
155 1 0.233035 0.958586 0.13711
56 1 0.0184197 0.857571 0.196107
139 1 0.252425 0.767662 0.118627
353 2 0.306305 0.866461 0.195385
187 1 0.00148785 0.766219 0.0601948
103 1 0.12608 0.996592 0.0282756
30 1 0.167681 0.876815 0.239251
321 2 0.158692 0.777447 0.304734
211 1 0.057536 0.824982 0.383465
264 1 0.199733 0.911596 0.392615
147 1 0.0900094 0.98992 0.466463
52 1 0.275101 0.800845 0.329466
123 1 0.078412 0.966483 0.316074
154 1 0.187609 0.753716 0.436094
162 1 0.306534 0.96299 0.27714
328 2 0.310261 0.77824 0.444009
252 1 0.256166 0.837231 0.54387
148 1 0.244558 0.986932 0.523748
347 2 0.0159701 0.945598 0.550735
161 1 0.088149 0.842602 0.566054
59 1 0.18921 0.931364 0.676529
55 1 0.0413703 0.980215 0.676134
332 2 0.0210589 0.856807 0.690812
32 1 0.197198 0.765905 0.654904
18 1 0.0761603 0.789243 0.923732
199 1 0.265386 0.965497 0.967467
250 1 0.246093 0.905981 0.83949
20 1 0.068789 0.969901 0.875646
224 1 0.283041 0.780806 0.962928
10 1 0.126989 0.82906 0.776727
355 2 0.00055778 0.838967 0.81985
324 2 0.121594 0.973245 0.770061
311 2 0.250134 0.792965 0.766802
19 1 0.614694 0.192569 0.139864
279 1 0.462014 0.211409 0.144972
126 1 0.510939 0.0750768 0.120979
113 1 0.397363 0.0880617 0.245206
215 1 0.373974 0.0425323 0.0821971
54 1 0.544914 0.19417 0.00811119
320 2 0.531796 0.0259462 0.00110787
171 1 0.641587 0.131595 0.374709
46 1 0.544501 0.207653 0.464809
295 2 0.516645 0.0845108 0.359175
8 1 0.415708 0.171643 0.384413
177 1 0.524943 0.18112 0.285698
2 1 0.483509 0.0577872 0.481681
343 2 0.635151 0.127326 0.252275
273 1 0.360664 0.0372178 0.415502
165 1 0.560406 0.0112467 0.273435
131 1 0.413847 0.223596 0.530559
68 1 0.38328 0.24708 0.694801
327 2 0.495548 0.161251 0.607182
201 1 0.534237 0.234165 0.713072
276 1 0.586975 0.0992353 0.694156
16 1 0.61781 0.0961903 0.545757
31 1 0.428089 0.100778 0.723334
114 1 0.364637 0.0622582 0.591403
145 1 0.639953 0.226875 0.610346
4 1 0.499268 0.177938 0.852216
89 1 0.63133 0.0997907 0.903787
34 1 0.370905 0.23359 0.971507
45 1 0.433088 0.0829325 0.946831
104 1 0.514269 0.0297395 0.828915
173 1 0.569046 0.475676 0.114567
299 2 0.540861 0.312595 0.231632
75 1 0.647676 0.347918 0.177505
106 1 0.536627 0.330077 0.0865716
108 1 0.424337 0.4146 0.165136
214 1 0.642261 0.292821 0.326505
138 1 0.381652 0.438962 0.354279
153 1 0.497188 0.316581 0.381418
204 1 0.53995 0.430601 0.282402
67 1 0.652788 0.345131 0.477286
38 1 0.557275 0.441905 0.438161
36 1 0.383528 0.302851 0.25852
70 1 0.45518 0.378087 0.705395
219 1 0.41313 0.399138 0.506763
143 1 0.593104 0.447658 0.649819
35 1 0.522205 0.335383 0.579272
144 1 0.660433 0.326201 0.734112
21 1 0.452581 0.497048 0.609988
81 1 0.411959 0.324886 0.849014
305 2 0.419342 0.44303 0.84303
356 2 0.484797 0.268385 0.937622
157 1 0.433347 0.393204 0.976458
233 1 0.549172 0.403306 0.807854
53 1 0.586953 0.406367 0.962091
140 1 0.616045 0.275265 0.873121
340 2 0.658118 0.570411 0.137
23 1 0.444162 0.558432 0.228352
17 1 0.362922 0.647738 0.111095
151 1 0.521361 0.628712 0.120505
185 1 0.443933 0.534001 0.0366411
291 2 0.571998 0.737988 0.18025
122 1 0.605803 0.587627 0.248791
314 2 0.369837 0.559141 0.339032
7 1 0.500079 0.680719 0.282212
239 1 0.6575 0.745143 0.282918
189 1 0.602781 0.629739 0.397199
94 1 0.467352 0.591895 0.464884
308 2 0.532553 0.535671 0.347358
156 1 0.392849 0.700665 0.379067
195 1 0.580525 0.684605 0.526129
197 1 0.464693 0.664628 0.623234
323 2 0.542099 0.52732 0.54371
237 1 0.511225 0.557515 0.734261
303 2 0.363673 0.576851 0.616106
6 1 0.601843 0.670324 0.681766
47 1 0.346329 0.50791 0.727718
293 2 0.410598 0.683719 0.739045
84 1 0.659849 0.545199 0.512366
107 1 0.513292 0.693608 0.81668
179 1 0.596593 0.601845 0.991058
358 2 0.366207 0.530871 0.93739
164 1 0.490769 0.534033 0.889235
78 1 0.436991 0.67976 0.964427
60 1 0.627592 0.552424 0.832651
191 1 0.348364 0.627342 0.837517
216 1 0.510064 0.777636 0.0671863
163 1 0.633707 0.854747 0.150397
95 1 0.436972 0.926893 0.210741
61 1 0.63254 0.963115 0.0419256
9 1 0.35673 0.867069 0.0735924
222 1 0.491775 0.921434 0.0596983
79 1 0.40084 0.784244 0.202802
357 2 0.642053 0.843214 0.0132877
257 1 0.541874 0.838126 0.26464
247 1 0.523782 0.933403 0.415281
275 1 0.663746 0.839372 0.440602
77 1 0.540866 0.773022 0.397228
116 1 0.408389 0.869245 0.347223
312 2 0.433325 0.990275 0.322272
57 1 0.392167 0.917314 0.499147
150 1 0.659295 0.99963 0.425669
65 1 0.506499 0.820424 0.633984
289 2 0.542643 0.822953 0.520805
268 1 0.62366 0.958049 0.73924
232 1 0.431931 0.771162 0.505995
120 1 0.623046 0.944768 0.5623
62 1 0.361492 0.795806 0.650994
12 1 0.483276 0.977844 0.619108
186 1 0.344934 0.945931 0.706634
74 1 0.44335 0.846433 0.932158
58 1 0.600467 0.809899 0.754292
133 1 0.468208 0.886531 0.790795
27 1 0.58193 0.917169 0.912274
322 2 0.393936 0.963873 0.983944
167 1 0.353861 0.774964 0.826679
109 1 0.370045 0.979602 0.850901
88 1 0.586081 0.754173 0.937985
238 1 0.982491 0.0122842 0.0580779
40 1 0.724768 0.120899 0.0512963
235 1 0.842508 0.0931207 0.139061
184 1 0.931754 0.15752 0.0478847
159 1 0.746796 0.201592 0.203453
93 1 0.95633 0.00305708 0.194699
170 1 0.679994 0.0339387 0.175785
329 2 0.763104 0.00165883 0.0840416
76 1 0.916972 0.11848 0.444485
301 2 0.859266 0.154188 0.258184
69 1 0.775097 0.209977 0.36195
183 1 0.763214 0.075354 0.2935
349 2 0.98286 0.0164517 0.390222
242 1 0.759452 0.115271 0.489866
325 2 0.671852 0.220796 0.492349
344 2 0.876245 0.0301102 0.306409
24 1 0.943395 0.217146 0.740565
50 1 0.906744 0.051274 0.692779
112 1 0.756979 0.12171 0.649739
266 1 0.904188 0.190599 0.58915
26 1 0.853358 0.0103319 0.56295
294 2 0.726995 0.0098374 0.548345
15 1 0.987202 0.0767448 0.561439
206 1 0.923336 0.214816 0.907053
225 1 0.896154 0.0709777 0.833549
130 1 0.708325 0.183575 0.784202
168 1 0.852377 0.0331192 0.979279
137 1 0.763131 0.0302011 0.804111
271 1 0.789748 0.152977 0.910059
337 2 0.83816 0.145066 0.753586
44 1 0.829003 0.281729 0.00182704
267 1 0.710542 0.423385 0.0749796
11 1 0.852806 0.411741 0.108749
196 1 0.923437 0.393757 0.243773
351 2 0.765554 0.308778 0.132026
25 1 0.976575 0.319525 0.0791867
241 1 0.674509 0.268276 0.0265413
188 1 0.982117 0.468204 0.125004
92 1 0.734401 0.496841 0.225285
115 1 0.878364 0.252136 0.165539
339 2 0.813839 0.459746 0.319121
158 1 0.69324 0.478938 0.358911
223 1 0.922355 0.440228 0.385193
178 1 0.80221 0.351646 0.393656
100 1 0.931212 0.268339 0.33551
270 1 0.768756 0.358876 0.256809
22 1 0.924586 0.356506 0.695347
192 1 0.770233 0.42756 0.540994
350 2 0.687747 0.359914 0.599704
245 1 0.905961 0.35134 0.542005
309 2 0.985452 0.271017 0.627925
110 1 0.802935 0.254959 0.676754
280 1 0.776264 0.408834 0.702273
336 2 0.967231 0.464043 0.635322
119 1 0.784427 0.267451 0.52948
334 2 0.892322 0.482117 0.503761
64 1 0.985838 0.418442 0.967771
13 1 0.890304 0.459285 0.82714
318 2 0.728752 0.26386 0.903759
208 1 0.82222 0.28646 0.822053
169 1 0.826142 0.474239 0.970947
142 1 0.723455 0.388185 0.862005
316 2 0.676296 0.459446 0.772091
217 1 0.996986 0.334676 0.835556
352 2 0.691664 0.499167 0.929917
203 1 0.913492 0.58293 0.0382934
319 2 0.851878 0.580544 0.132777
33 1 0.743133 0.567666 0.0391688
96 1 0.762385 0.651887 0.198652
283 1 0.909446 0.679385 0.166064
152 1 0.820953 0.724713 0.0575911
72 1 0.680153 0.719833 0.0904916
269 1 0.737697 0.683122 0.454504
172 1 0.804582 0.542959 0.432456
277 1 0.960305 0.591778 0.384227
251 1 0.832914 0.664788 0.340305
125 1 0.933022 0.745653 0.434459
315 2 0.718593 0.600752 0.319712
226 1 0.877705 0.54222 0.257507
306 2 0.980637 0.63261 0.27073
317 2 0.918593 0.664271 0.659282
129 1 0.793935 0.688982 0.638892
282 1 0.895614 0.628683 0.52805
290 2 0.687924 0.645835 0.575531
281 1 0.707883 0.564869 0.686854
83 1 0.862664 0.522505 0.659706
298 2 0.771785 0.546075 0.586817
209 1 0.981062 0.573448 0.711074
221 1 0.701154 0.683805 0.814556
302 2 0.697792 0.661228 0.942032
1 1 0.962201 0.588312 0.880753
218 1 0.825472 0.647222 0.923125
288 1 0.866628 0.631714 0.774588
29 1 0.768301 0.540113 0.833428
63 1 0.820064 0.948146 0.19424
174 1 0.756341 0.857833 0.0770724
330 2 0.903549 0.798692 0.185482
105 1 0.898778 0.871692 0.0840133
135 1 0.77787 0.804062 0.220245
14 1 0.695687 0.92211 0.300846
99 1 0.926823 0.891038 0.487033
80 1 0.799101 0.822105 0.375649
287 1 0.933452 0.913658 0.322437
190 1 0.809297 0.977575 0.401119
331 2 0.833864 0.758313 0.495462
98 1 0.941894 0.751845 0.292323
296 2 0.820115 0.815659 0.625235
236 1 0.90717 0.902134 0.659578
248 1 0.683452 0.788249 0.606023
213 1 0.750185 0.951191 0.658679
240 1 0.771694 0.884237 0.519711
37 1 0.939155 0.775703 0.587002
246 1 0.772133 0.812332 0.737625
207 1 0.928773 0.762166 0.732216
39 1 0.728417 0.80459 0.902758
41 1 0.731346 0.961832 0.93793
121 1 0.971802 0.897616 0.955968
297 2 0.714805 0.895148 0.805701
102 1 0.87396 0.892431 0.814053
292 2 0.843223 0.887805 0.938829
43 1 0.89332 0.775255 0.910545
ITEM: TIMESTEP
50000
ITEM: NUMBER OF ATOMS
360
ITEM: BOX BOUNDS pp pp pp
0.0000000000000000e+00 6.6943295008216896e+00
0.0000000000000000e+00 6.6943295008216896e+00
0.0000000000000000e+00 6.6943295008216896e+00
ITEM: ATOMS id type xs ys zs
301 2 0.316068 0.154144 0.230052
146 1 0.265981 0.165775 0.0672288
167 1 0.11684 0.200512 0.0833542
256 1 0.189003 0.154815 0.215394
222 1 0.287552 0.0451899 0.167208
121 1 0.12663 0.0313432 0.15083
126 1 0.216353 0.0403838 0.0297755
227 1 0.0368374 0.0077492 0.0288743
356 2 0.0111662 0.243629 0.111322
36 1 0.210513 0.0290494 0.289656
113 1 0.288847 0.16204 0.356296
345 2 0.213158 0.0822727 0.416951
229 1 0.0551698 0.0610967 0.273179
86 1 0.142313 0.154183 0.35884
326 2 0.20312 0.226358 0.447198
182 1 0.00616543 0.00814612 0.407232
123 1 0.11771 0.105464 0.49995
273 1 0.329357 0.0182752 0.418154
20 1 0.0276246 0.235014 0.252026
287 1 0.287533 0.148743 0.512433
116 1 0.0890936 0.00616582 0.632922
128 1 0.244814 0.0176392 0.696743
321 2 0.197954 0.120598 0.612086
147 1 0.0665945 0.179113 0.619264
82 1 0.226357 0.0122867 0.552724
12 1 0.312046 0.152042 0.6717
37 1 0.147698 0.124231 0.723858
127 1 0.190599 0.243915 0.576374
3 1 0.133164 0.0991682 0.912385
211 1 0.0196317 0.0755739 0.792428
253 1 0.0289194 0.240228 0.77223
311 2 0.151623 0.21584 0.831823
40 1 0.302522 0.0898765 0.908377
68 1 0.303511 0.233659 0.797753
59 1 0.232402 0.232877 0.937412
305 2 0.253462 0.119651 0.796794
17 1 0.115278 0.355687 0.175625
166 1 0.206379 0.481768 0.10239
157 1 0.312515 0.343438 0.0704062
194 1 0.0474665 0.336434 0.0308449
97 1 0.0514906 0.493419 0.0910665
210 1 0.257077 0.275186 0.195587
96 1 0.0268274 0.473874 0.240761
348 2 0.196939 0.297483 0.0763852
334 2 0.143423 0.266165 0.2879
319 2 0.117726 0.399354 0.302345
205 1 0.086617 0.272176 0.462706
212 1 0.131689 0.426784 0.427389
245 1 0.225808 0.315212 0.361181
55 1 0.0150082 0.35083 0.355582
25 1 0.22704 0.443489 0.257101
226 1 0.00296629 0.384066 0.497053
192 1 0.27217 0.391138 0.669313
209 1 0.140642 0.465799 0.618386
136 1 0.249864 0.395246 0.517556
277 1 0.0383691 0.345307 0.652443
132 1 0.166763 0.28983 0.737543
298 2 0.134474 0.359779 0.544155
335 2 0.313555 0.27944 0.586101
10 1 0.0990167 0.306421 0.888388
259 1 0.251758 0.377358 0.845971
285 1 0.0462165 0.458884 0.906303
208 1 0.198182 0.383383 0.980467
359 2 0.325546 0.332179 0.938273
272 1 0.108044 0.418125 0.772201
307 2 0.138675 0.531818 0.206658
198 1 0.127647 0.624827 0.119725
42 1 0.319395 0.634131 0.0903417
300 2 0.206146 0.67662 0.0301404
293 2 0.0798811 0.709669 0.0231572
5 1 0.224629 0.630005 0.233762
85 1 0.0762747 0.678129 0.39033
161 1 0.247807 0.666163 0.405391
254 1 0.138575 0.548658 0.345409
188 1 0.00926638 0.628306 0.256632
51 1 0.307055 0.513891 0.364861
149 1 0.210145 0.552081 0.491873
13 1 0.0679866 0.554003 0.504689
29 1 0.0141476 0.651319 0.608035
310 2 0.130988 0.597571 0.61203
261 1 0.142482 0.713145 0.698824
207 1 0.131915 0.715873 0.526394
224 1 0.247198 0.645895 0.605616
217 1 0.0915912 0.57385 0.717703
317 2 0.234866 0.531835 0.660712
232 1 0.331151 0.512816 0.57315
90 1 0.30029 0.618167 0.746446
114 1 0.230105 0.531646 0.856642
139 1 0.128555 0.659232 0.836383
258 1 0.0955418 0.589629 0.968205
9 1 0.271059 0.659664 0.92384
316 2 0.198984 0.516303 0.985091
347 2 0.0147834 0.595446 0.823016
260 1 0.00123582 0.69952 0.919027
124 1 0.137333 0.770848 0.120479
47 1 0.27468 0.769941 0.203772
93 1 0.0146712 0.822171 0.0219104
49 1 0.205955 0.893678 0.189482
99 1 0.032878 0.892377 0.151649
168 1 0.154975 0.897997 0.0376622
39 1 0.302818 0.783462 0.0229458
358 2 0.250484 0.945635 0.369554
32 1 0.174808 0.813581 0.411723
71 1 0.111227 0.906527 0.297109
80 1 0.148128 0.968322 0.436608
8 1 0.271664 0.884887 0.482467
79 1 0.32073 0.833925 0.329529
282 1 0.0234547 0.815466 0.389809
52 1 0.108297 0.754709 0.26034
101 1 0.111564 0.875392 0.550317
187 1 0.149473 0.870927 0.694544
118 1 0.302992 0.778534 0.659926
328 2 0.23339 0.896611 0.604027
172 1 0.0263962 0.797625 0.651291
360 2 0.239785 0.781208 0.542186
286 1 0.00592497 0.931447 0.749376
255 1 0.0858559 0.801735 0.812842
264 1 0.169373 0.767977 0.941559
231 1 0.25515 0.919877 0.909614
250 1 0.0503982 0.920373 0.908949
1 1 0.269815 0.771704 0.813118
322 2 0.264556 0.899181 0.773568
162 1 0.152528 0.966493 0.809814
177 1 0.612657 0.189738 0.0834917
112 1 0.432044 0.0235301 0.122965
263 1 0.397924 0.193651 0.134744
153 1 0.518685 0.122699 0.204007
104 1 0.638195 0.024681 0.122185
262 1 0.488192 0.115362 0.0265246
329 2 0.349239 0.0708684 0.0226032
299 2 0.493616 0.248516 0.070582
338 2 0.580385 0.210382 0.495825
108 1 0.403184 0.221859 0.288697
31 1 0.418548 0.150317 0.42956
53 1 0.54695 0.127276 0.362351
170 1 0.390652 0.06071 0.282713
320 2 0.471964 0.0174197 0.459711
106 1 0.645938 0.201447 0.267809
230 1 0.654009 0.0332757 0.276739
200 1 0.615469 0.00284163 0.429323
76 1 0.628008 0.227562 0.608286
107 1 0.391725 0.0605995 0.562522
197 1 0.43894 0.217742 0.566846
46 1 0.597663 0.128981 0.708568
219 1 0.442765 0.0817562 0.71942
337 2 0.497058 0.194788 0.677301
171 1 0.565971 0.0959916 0.560519
89 1 0.387387 0.211432 0.959403
34 1 0.624671 0.057355 0.961473
70 1 0.507284 0.0933967 0.862357
344 2 0.5872 0.180903 0.830529
323 2 0.391262 0.13694 0.835456
140 1 0.536205 0.229094 0.952718
201 1 0.451454 0.243351 0.815112
92 1 0.655405 0.387042 0.209265
274 1 0.453986 0.383526 0.104153
169 1 0.58492 0.353585 0.0607697
354 2 0.376881 0.307737 0.177279
151 1 0.551309 0.49232 0.139622
33 1 0.351617 0.48877 0.182778
173 1 0.534189 0.291901 0.19672
181 1 0.344206 0.496703 0.0109088
189 1 0.446934 0.435317 0.420826
164 1 0.631529 0.349481 0.350869
284 1 0.367363 0.284643 0.442799
278 1 0.353771 0.377582 0.296502
28 1 0.511281 0.412852 0.276017
202 1 0.515007 0.275288 0.392621
138 1 0.642899 0.462983 0.484736
67 1 0.54001 0.304452 0.718313
265 1 0.480706 0.425833 0.687496
195 1 0.400204 0.294586 0.693239
134 1 0.399468 0.374291 0.57048
237 1 0.655398 0.368285 0.618256
48 1 0.546468 0.340953 0.522349
144 1 0.447468 0.357945 0.940051
175 1 0.385626 0.400163 0.790921
180 1 0.611672 0.321018 0.862357
185 1 0.527256 0.451289 0.832245
241 1 0.504787 0.498117 0.990611
303 2 0.665075 0.386969 0.754334
61 1 0.463234 0.614125 0.146077
268 1 0.569572 0.733823 0.115266
288 1 0.600852 0.603839 0.0508979
295 2 0.428053 0.719803 0.089001
313 2 0.352949 0.602552 0.210606
340 2 0.64761 0.567374 0.175644
247 1 0.494726 0.71399 0.389556
111 1 0.379145 0.61109 0.461061
269 1 0.543714 0.555758 0.416927
38 1 0.440905 0.553915 0.286473
154 1 0.368665 0.683753 0.31033
239 1 0.570762 0.636599 0.254363
94 1 0.627237 0.502391 0.303722
306 2 0.653904 0.73473 0.727255
315 2 0.609072 0.563456 0.549478
87 1 0.4883 0.502084 0.55518
65 1 0.590811 0.661715 0.653805
109 1 0.396537 0.657277 0.649528
43 1 0.605708 0.513383 0.674535
78 1 0.491692 0.65767 0.530603
333 2 0.378292 0.501359 0.702707
81 1 0.480681 0.567101 0.74337
143 1 0.664186 0.679293 0.526454
137 1 0.542051 0.720841 0.781452
155 1 0.411564 0.70085 0.837619
290 2 0.604712 0.606827 0.765145
54 1 0.377254 0.543841 0.849702
281 1 0.539129 0.60786 0.878594
72 1 0.426987 0.636967 0.989201
30 1 0.358566 0.903815 0.209959
27 1 0.619435 0.875039 0.0490695
95 1 0.535609 0.909461 0.178757
7 1 0.469296 0.84352 0.0521305
343 2 0.544432 0.979462 0.0382672
156 1 0.451702 0.76332 0.211932
291 2 0.659244 0.912688 0.223358
238 1 0.336257 0.927162 0.058056
57 1 0.351309 0.765239 0.468235
216 1 0.515968 0.974631 0.319758
349 2 0.460476 0.852221 0.307974
73 1 0.462402 0.886667 0.429926
289 2 0.591643 0.875786 0.385113
60 1 0.597876 0.804707 0.267798
248 1 0.651966 0.759639 0.388475
312 2 0.388806 0.929804 0.514293
2 1 0.352724 0.932764 0.641927
62 1 0.445361 0.798149 0.580435
148 1 0.576954 0.81211 0.500703
186 1 0.501938 0.941225 0.562165
16 1 0.563847 0.841356 0.670038
199 1 0.408059 0.825439 0.741287
102 1 0.640418 0.968171 0.660188
4 1 0.394846 0.824641 0.920258
352 2 0.497 0.819404 0.841646
215 1 0.543601 0.902379 0.922528
64 1 0.632657 0.82152 0.837451
276 1 0.497941 0.93995 0.76314
41 1 0.646174 0.986838 0.812419
279 1 0.414103 0.976118 0.943008
103 1 0.350506 0.980614 0.802079
74 1 0.531249 0.750957 0.941462
66 1 0.865337 0.135437 0.0493683
165 1 0.868889 0.228385 0.189772
130 1 0.769576 0.091862 0.152014
225 1 0.992424 0.119423 0.145211
131 1 0.978679 0.184198 0.380614
351 2 0.771785 0.0855279 0.284704
270 1 0.815642 0.184821 0.348902
159 1 0.767937 0.0266981 0.393289
160 1 0.897642 0.0860746 0.25902
332 2 0.878885 0.0694207 0.38686
11 1 0.678032 0.146437 0.415309
355 2 0.718911 0.157269 0.534071
330 2 0.74445 0.0080706 0.73603
294 2 0.842292 0.0372376 0.589479
69 1 0.755855 0.131426 0.673091
145 1 0.917135 0.172059 0.668975
246 1 0.940662 0.238175 0.528853
213 1 0.965669 0.0728138 0.535018
150 1 0.723178 0.0331997 0.532303
341 2 0.963228 0.0614702 0.663093
15 1 0.835749 0.138279 0.502941
235 1 0.704114 0.128329 0.82226
324 2 0.803919 0.10907 0.935456
234 1 0.854914 0.129718 0.809086
206 1 0.855715 0.235626 0.912084
176 1 0.932278 0.0671347 0.930143
339 2 0.956737 0.178954 0.851258
110 1 0.705704 0.204105 0.961555
242 1 0.787892 0.00127683 0.87508
243 1 0.996292 0.193842 0.98103
318 2 0.732857 0.238626 0.849324
309 2 0.950307 0.432048 0.0307569
267 1 0.819237 0.385393 0.159733
179 1 0.885763 0.306545 0.0486036
249 1 0.970695 0.360316 0.162213
75 1 0.696819 0.483887 0.0995
214 1 0.734408 0.259607 0.128217
283 1 0.723313 0.36653 0.00713467
119 1 0.900746 0.497979 0.120499
100 1 0.860215 0.319621 0.404979
257 1 0.753623 0.464021 0.372481
23 1 0.76668 0.312298 0.278263
196 1 0.894795 0.423837 0.309997
304 2 0.927142 0.297831 0.2789
223 1 0.697075 0.290074 0.470083
204 1 0.880615 0.469229 0.461787
221 1 0.698398 0.258308 0.733632
35 1 0.784719 0.388377 0.521708
346 2 0.768579 0.356274 0.668349
296 2 0.967924 0.373033 0.746243
178 1 0.887642 0.384607 0.628654
22 1 0.789607 0.249706 0.593417
220 1 0.777201 0.468522 0.715955
325 2 1.00069 0.46885 0.620748
24 1 0.856833 0.294977 0.747541
327 2 0.742505 0.480585 0.590778
244 1 0.851008 0.439972 0.96508
83 1 0.757512 0.368329 0.850661
266 1 0.943871 0.34827 0.872689
350 2 0.850272 0.467247 0.840562
133 1 0.667013 0.496754 0.809714
98 1 0.867591 0.655947 0.185718
14 1 0.969553 0.621498 0.0527963
158 1 0.766891 0.529038 0.228415
142 1 0.722568 0.655824 0.136421
251 1 0.812847 0.595492 0.028949
163 1 0.988092 0.738377 0.14805
336 2 0.907413 0.554041 0.24398
58 1 0.689646 0.748092 0.00508928
129 1 0.931394 0.665054 0.468337
275 1 0.699357 0.620654 0.361282
240 1 0.751609 0.733052 0.278713
125 1 0.854663 0.591315 0.346638
174 1 0.905883 0.72635 0.329146
84 1 0.785859 0.723557 0.449159
193 1 0.983853 0.53113 0.37871
236 1 0.726227 0.603273 0.687626
88 1 0.8381 0.683699 0.619705
314 2 0.865237 0.600681 0.725397
77 1 0.893799 0.53635 0.600791
21 1 0.76435 0.569039 0.508653
44 1 0.936623 0.561001 0.918036
233 1 0.804328 0.592141 0.830116
45 1 0.681297 0.678698 0.844199
342 2 0.692643 0.632708 0.971718
203 1 0.824858 0.706262 0.923812
105 1 0.804727 0.731984 0.770624
280 1 0.949966 0.500847 0.753614
191 1 0.700474 0.515562 0.942602
135 1 0.96192 0.698078 0.756761
63 1 0.829215 0.755596 0.0688072
122 1 0.703107 0.808454 0.152559
353 2 0.793301 0.895061 0.118791
115 1 0.767525 0.999032 0.0300674
141 1 0.862757 0.821211 0.224741
19 1 0.896532 0.980514 0.135021
6 1 0.859687 0.860805 0.373963
331 2 0.982063 0.899309 0.468811
184 1 0.710094 0.883703 0.338825
26 1 0.959049 0.941494 0.275435
120 1 0.732238 0.89031 0.485763
18 1 0.874393 0.95409 0.492493
308 2 1.00143 0.82667 0.269998
190 1 0.804435 0.966666 0.250835
252 1 0.968442 0.935286 0.603522
56 1 0.886977 0.811965 0.685745
117 1 0.784925 0.931054 0.624115
218 1 0.709835 0.800504 0.630137
297 2 0.804484 0.819874 0.54547
91 1 0.922663 0.793495 0.540801
50 1 0.873037 0.992435 0.726187
292 2 0.931958 0.971173 0.84642
357 2 0.895961 0.805813 0.965653
271 1 0.911359 0.93292 0.982353
228 1 0.930033 0.828831 0.834761
183 1 0.771319 0.853744 0.938693
152 1 0.776506 0.879069 0.771154
302 2 0.669865 0.923509 0.93661
ITEM: TIMESTEP
100000
ITEM: NUMBER OF ATOMS
360
ITEM: BOX BOUNDS pp pp pp
0.0000000000000000e+00 6.6943295008216896e+00
0.0000000000000000e+00 6.6943295008216896e+00
0.0000000000000000e+00 6.6943295008216896e+00
ITEM: ATOMS id type xs ys zs
37 1 0.294458 0.126226 0.17939
354 2 0.179882 0.181391 0.124254
99 1 0.220514 0.107969 0.033681
3 1 0.0993504 0.107634 0.214006
238 1 0.0789465 0.0329369 0.0841142
266 1 0.0719677 0.168221 0.0239305
25 1 0.273992 0.243174 0.0890783
86 1 0.191218 0.0287261 0.333826
292 2 0.199398 0.153062 0.252303
161 1 0.103652 0.188063 0.345885
168 1 0.221391 0.127503 0.438807
32 1 0.0632051 0.037241 0.437912
300 2 0.0662999 0.0305653 0.31127
245 1 0.306858 0.187142 0.327603
253 1 0.0113305 0.157646 0.711308
134 1 0.305193 0.20386 0.655966
36 1 0.109443 0.110593 0.558578
350 2 0.237738 0.17002 0.556946
127 1 0.206212 0.067317 0.660831
195 1 0.13563 0.217137 0.657651
351 2 0.297549 0.105233 0.7377
189 1 0.117566 0.244911 0.495019
357 2 0.0230011 0.0572749 0.954313
40 1 0.164099 0.246149 0.952343
333 2 0.138514 0.130233 0.91851
13 1 0.126116 0.0760593 0.775724
262 1 0.273992 0.0757595 0.865353
323 2 0.289319 0.197542 0.957167
128 1 0.275687 0.220398 0.794234
259 1 0.123106 0.236405 0.811422
217 1 0.0118407 0.163211 0.884137
250 1 0.155954 0.00747265 0.940939
298 2 0.272693 0.260518 0.231823
256 1 0.0851426 0.431662 0.190263
167 1 0.0781314 0.328336 0.0668264
282 1 0.221495 0.462566 0.11718
359 2 0.00562004 0.341947 0.212109
307 2 0.188306 0.333586 0.125795
208 1 0.113307 0.262047 0.205874
119 1 0.216738 0.380164 0.250814
326 2 0.0773401 0.474161 0.303829
246 1 0.213557 0.29386 0.404064
207 1 0.0382473 0.48249 0.427867
226 1 0.0836337 0.354064 0.329542
295 2 0.124921 0.387288 0.448886
111 1 0.203918 0.470614 0.373316
28 1 0.313056 0.40395 0.474787
209 1 0.207219 0.492782 0.538252
136 1 0.0657486 0.408836 0.578759
192 1 0.175939 0.487143 0.696434
213 1 0.227505 0.328094 0.572169
48 1 0.238428 0.355055 0.740389
272 1 0.0705377 0.359594 0.718054
305 2 0.286364 0.418222 0.635509
313 2 0.181551 0.329836 0.8587
166 1 0.118955 0.446786 0.83834
114 1 0.0374682 0.334345 0.901244
97 1 0.0985099 0.462613 1.00145
38 1 0.223929 0.377225 0.994015
173 1 0.265992 0.464714 0.851055
112 1 0.321423 0.316006 0.891403
249 1 0.0192425 0.626574 0.174713
52 1 0.26459 0.682387 0.233144
254 1 0.152666 0.618025 0.0899545
71 1 0.29913 0.711289 0.0763695
309 2 0.0487482 0.501935 0.105591
8 1 0.16404 0.555137 0.252286
258 1 0.0168207 0.603542 0.0299172
149 1 0.116165 0.603481 0.389454
315 2 0.316824 0.54623 0.481895
182 1 0.0721892 0.699977 0.285274
96 1 0.282244 0.609854 0.362299
255 1 0.218403 0.670753 0.485484
198 1 0.301247 0.501211 0.259768
56 1 0.139529 0.6257 0.618846
360 2 0.035659 0.510597 0.642121
62 1 0.302191 0.597492 0.612418
109 1 0.197553 0.754183 0.679984
80 1 0.0871858 0.729725 0.530564
327 2 0.0595716 0.604787 0.516539
29 1 -0.0046069 0.64823 0.628753
264 1 0.180687 0.727564 0.969458
42 1 0.145005 0.582061 0.895376
144 1 0.25608 0.607443 0.758802
5 1 0.184457 0.725097 0.824398
162 1 0.0394082 0.675501 0.901773
353 2 0.262224 0.648817 0.899853
132 1 0.252969 0.559073 0.992893
260 1 0.0702089 0.614079 0.759894
222 1 0.181082 0.886511 0.0591318
175 1 0.0511832 0.874066 0.142817
146 1 0.202975 0.995754 0.160855
347 2 0.0143646 0.766961 0.187746
51 1 0.286227 0.838712 0.162025
329 2 0.280701 0.98048 0.0562077
58 1 0.0385358 0.745964 0.0602172
233 1 0.147171 0.761687 0.165452
273 1 0.250948 0.895701 0.385371
321 2 0.284182 0.827281 0.284078
118 1 0.331356 0.947445 0.268557
101 1 0.108412 0.890084 0.422507
294 2 0.0577635 0.771258 0.394413
63 1 0.0202521 0.847934 0.298129
49 1 0.172203 0.879169 0.255785
188 1 0.188676 0.760797 0.351356
261 1 0.21249 0.826789 0.513978
284 1 0.261986 0.88458 0.636574
297 2 0.0523889 0.93442 0.52836
172 1 0.0965362 0.86113 0.619712
145 1 0.0417621 0.98946 0.669291
170 1 0.189436 0.996185 0.511384
152 1 0.327751 0.759233 0.577706
187 1 0.03934 0.753299 0.728232
90 1 0.0656281 0.885469 0.963558
231 1 0.0931784 0.893862 0.80424
318 2 0.090018 0.788429 0.889403
1 1 0.20886 0.864722 0.90583
163 1 0.333439 0.751286 0.89599
147 1 0.242454 0.933657 0.782579
328 2 0.295344 0.954896 0.915742
317 2 0.276202 0.797309 0.782237
141 1 0.516717 0.0524009 0.137581
319 2 0.369838 0.133284 0.0621471
230 1 0.582732 0.210926 0.156263
104 1 0.493541 0.164208 0.0281546
229 1 0.617424 0.0790059 0.0144073
33 1 0.425465 0.21816 0.171224
320 2 0.512806 0.15682 0.258167
30 1 0.416279 0.0863869 0.247206
202 1 0.665294 0.173478 0.294023
106 1 0.561077 0.0284047 0.322765
153 1 0.514352 0.158495 0.374406
278 1 0.365699 0.0372236 0.39041
20 1 0.652202 0.102951 0.429506
349 2 0.401143 0.139873 0.441477
123 1 0.480229 0.00906271 0.488114
12 1 0.330427 0.248496 0.506239
337 2 0.423748 0.252102 0.37994
197 1 0.484351 0.243609 0.501516
343 2 0.527797 0.12363 0.494929
201 1 0.623031 0.168998 0.564566
289 2 0.406346 0.165187 0.596503
287 1 0.483075 0.0735477 0.628646
290 2 0.575068 0.0158841 0.690078
216 1 0.332874 0.0846105 0.541353
257 1 0.618902 0.0158666 0.564421
219 1 0.416847 0.151017 0.737636
64 1 0.567585 0.13682 0.747866
41 1 0.49887 0.0502021 0.911608
311 2 0.506494 0.247926 0.806473
322 2 0.36062 -0.00471694 0.79949
89 1 0.404261 0.167837 0.8872
44 1 0.565725 0.204348 0.906954
279 1 0.365929 0.0500596 0.977594
70 1 0.640625 0.0298668 0.849081
61 1 0.515156 0.344149 0.143112
179 1 0.619142 0.45797 0.193775
214 1 0.420481 0.295666 0.0209278
142 1 0.510281 0.42437 0.0158661
205 1 0.354833 0.380107 0.144847
291 2 0.546907 0.294244 0.0324551
308 2 0.615102 0.319999 0.228647
87 1 0.461293 0.369307 0.425511
21 1 0.453971 0.413617 0.257387
212 1 0.337963 0.332299 0.325789
125 1 0.504475 0.284733 0.289206
94 1 0.612549 0.266799 0.435163
138 1 0.608546 0.418998 0.349493
84 1 0.635932 0.447998 0.488763
344 2 0.600696 0.295027 0.590224
11 1 0.670906 0.41138 0.647528
76 1 0.516148 0.377223 0.560033
224 1 0.388541 0.341626 0.623912
107 1 0.510982 0.253349 0.668089