ITEM: TIMESTEP
0
ITEM: NUMBER OF ATOMS
360
ITEM: BOX BOUNDS pp pp pp
0.0000000000000000e+00 6.6943295008216896e+00
0.0000000000000000e+00 6.6943295008216896e+00
0.0000000000000000e+00 6.6943295008216896e+00
ITEM: ATOMS id type xs ys zs
293 2 0.0719703 0.231709 0.101795
155 1 0.0532076 0.146882 0.20617
30 1 0.150249 0.0333498 0.111341
97 1 0.201018 0.194339 0.0800684
271 1 0.00958745 0.066197 0.0772599
230 1 0.109374 0.135882 0.008577
21 1 0.282894 0.0881692 0.157021
237 1 0.307419 0.206623 0.23205
222 1 0.244831 0.00807331 0.00643619
2 1 0.178335 0.0424761 0.428605
71 1 0.252272 0.0437095 0.330063
325 2 0.00664342 0.0175737 0.364096
192 1 0.120143 0.109014 0.336968
232 1 0.311538 0.0143649 0.462594
137 1 0.117729 0.23906 0.262182
264 1 0.0372798 0.0460463 0.469394
298 2 0.0263029 0.0710333 0.656075
131 1 0.245591 0.0547497 0.669336
81 1 0.279383 0.191762 0.674337
114 1 0.204836 0.00639039 0.564462
206 1 0.12661 0.135067 0.680653
66 1 0.0234778 0.138746 0.577461
280 1 0.239979 0.196638 0.506078
208 1 0.0692714 0.0263592 0.94483
260 1 0.206657 0.119232 0.910783
270 1 0.225187 0.242564 0.942175
18 1 0.324619 0.148188 0.816113
258 1 0.120531 0.135416 0.825483
42 1 0.253972 0.0343086 0.800292
345 2 0.299051 0.0405268 0.910366
199 1 0.0777473 0.444181 0.212215
309 2 0.0533265 0.462725 0.106668
231 1 0.154063 0.34787 0.155383
188 1 0.121959 0.293775 0.0216992
180 1 0.261123 0.445671 0.0474855
32 1 0.273646 0.405798 0.180055
267 1 0.322006 0.261439 0.0590412
33 1 0.016789 0.296936 0.178686
118 1 0.241224 0.285337 0.400332
69 1 0.233108 0.413869 0.437736
82 1 0.100246 0.441187 0.347381
96 1 0.17312 0.354881 0.288175
350 2 0.120862 0.264228 0.40438
76 1 0.00617638 0.355519 0.491051
70 1 0.307829 0.443584 0.317867
1 1 0.134953 0.443485 0.685464
306 2 0.149706 0.427614 0.51513
274 1 0.194473 0.288524 0.732052
103 1 0.124879 0.310095 0.590795
117 1 0.231356 0.395055 0.588267
316 2 0.265966 0.448617 0.706975
176 1 0.301243 0.284911 0.83182
338 2 0.19006 0.308549 0.844712
294 2 0.0588561 0.415272 0.771017
58 1 0.0793448 0.29486 0.788661
104 1 0.153889 0.419872 0.819803
303 2 0.255497 0.384426 0.928047
286 1 0.331563 0.45511 0.82889
123 1 0.0451608 0.37295 0.965192
48 1 0.0732164 0.606437 0.17381
189 1 0.125451 0.541324 0.0373112
202 1 0.200504 0.506243 0.148899
305 2 0.270997 0.596868 0.112224
23 1 0.130954 0.728454 0.122545
196 1 0.22451 0.606651 0.216433
25 1 0.0403391 0.707451 0.0160701
285 1 0.0319434 0.737753 0.229464
308 2 0.198956 0.511492 0.290287
86 1 0.0265348 0.537968 0.286722
167 1 0.105617 0.656257 0.32364
307 2 0.124052 0.632117 0.430339
300 2 0.0706975 0.50822 0.453956
52 1 0.241403 0.62645 0.349777
321 2 0.327577 0.701244 0.397871
216 1 0.249468 0.566115 0.459942
61 1 0.28641 0.735356 0.259106
164 1 0.162844 0.54739 0.538348
288 1 0.134789 0.720822 0.677751
186 1 0.271678 0.618912 0.614936
248 1 0.236166 0.700563 0.506126
194 1 0.106897 0.685206 0.555704
149 1 0.0103465 0.528206 0.547935
354 2 0.0731478 0.579926 0.643878
246 1 0.308857 0.72275 0.73452
277 1 0.0748202 0.50012 0.907282
272 1 0.00421155 0.704203 0.851349
228 1 0.197737 0.621178 0.762793
91 1 0.238575 0.511947 0.920218
4 1 0.272545 0.676954 0.886315
342 2 0.111831 0.540545 0.795556
360 2 0.0850968 0.640503 0.926902
74 1 0.180771 0.64611 0.987619
326 2 0.325829 0.554646 0.840472
161 1 0.132221 0.709912 0.881307
17 1 0.13538 0.846763 0.079878
107 1 0.327157 0.873099 0.0834726
172 1 0.0530347 0.889482 0.19541
315 2 0.331785 0.759006 0.141938
225 1 0.145852 0.993979 0.235431
215 1 0.210825 0.868906 0.179519
59 1 0.323308 0.934845 0.232289
353 2 0.0804561 0.967235 0.0464178
126 1 0.210905 0.927761 0.352025
247 1 0.217994 0.801113 0.348696
182 1 0.0803123 0.8806 0.485691
357 2 0.0782246 0.800791 0.316286
100 1 0.0615366 0.920154 0.333376
147 1 0.3321 0.80122 0.42303
289 2 0.183777 0.785226 0.251711
151 1 0.114 0.766027 0.438283
3 1 0.261827 0.891021 0.470285
136 1 0.326329 0.880124 0.613
62 1 0.218661 0.818522 0.746483
40 1 0.0410838 0.95251 0.667727
105 1 0.179663 0.850529 0.601047
5 1 0.142857 0.890613 0.885239
284 1 0.289232 0.886841 0.872369
349 2 0.0474408 0.798837 0.763007
323 2 0.115545 0.990797 0.802777
287 1 0.23473 0.814831 0.982722
98 1 0.00232427 0.909858 0.990478
297 2 0.53184 0.126421 0.0477633
320 2 0.597316 0.0405426 0.0509985
113 1 0.661242 0.170647 0.151514
185 1 0.45876 0.18509 0.136385
99 1 0.491051 0.0361326 0.160453
224 1 0.362686 0.0872855 0.0310378
187 1 0.615945 0.0258152 0.17123
253 1 0.526037 0.146377 0.241817
181 1 0.519854 0.146113 0.382054
108 1 0.424295 0.18808 0.489724
10 1 0.369508 0.0892567 0.356212
45 1 0.439121 0.0136199 0.281461
128 1 0.457895 0.00608955 0.426221
36 1 0.349503 0.228772 0.355058
259 1 0.647803 0.101691 0.393174
13 1 0.558726 0.00228823 0.311103
200 1 0.566422 0.245607 0.483886
95 1 0.55137 0.220347 0.638603
51 1 0.415876 0.237394 0.655202
47 1 0.410512 0.040275 0.694325
346 2 0.465112 0.0805605 0.516695
11 1 0.59768 0.101874 0.550422
275 1 0.356327 0.125752 0.577044
282 1 0.49993 0.00463007 0.60405
94 1 0.421081 0.0123047 0.898801
34 1 0.443069 0.194912 0.98512
57 1 0.575684 0.102603 0.947521
142 1 0.609975 0.236528 0.792727
332 2 0.408564 0.144911 0.893134
127 1 0.478926 0.0877224 0.819253
273 1 0.605654 0.0991349 0.752387
244 1 0.384949 0.408161 0.0852725
335 2 0.581992 0.365796 0.167139
197 1 0.603859 0.261615 0.0802401
344 2 0.377975 0.276172 0.149322
263 1 0.58686 0.478297 0.0595914
38 1 0.507285 0.451759 0.167109
56 1 0.632278 0.284305 0.222278
157 1 0.539604 0.377603 0.42093
249 1 0.49682 0.304649 0.305095
328 2 0.446703 0.299271 0.48249
339 2 0.373026 0.322605 0.3034
53 1 0.626308 0.408701 0.310923
144 1 0.427912 0.419123 0.389641
317 2 0.397801 0.423375 0.265275
46 1 0.518547 0.406529 0.551793
8 1 0.382827 0.401479 0.647462
243 1 0.355741 0.336459 0.554451
68 1 0.560395 0.449776 0.659673
130 1 0.501025 0.301163 0.744141
15 1 0.63392 0.292382 0.922508
337 2 0.532271 0.280369 0.848661
148 1 0.414911 0.269493 0.884591
359 2 0.536928 0.488119 0.866068
299 2 0.449613 0.417005 0.883648
276 1 0.65013 0.420812 0.889395
133 1 0.382773 0.350678 0.753719
233 1 0.501354 0.361311 0.982194
78 1 0.462332 0.512883 0.0617146
152 1 0.575112 0.633232 0.0707351
9 1 0.364302 0.705937 0.0490143
158 1 0.532184 0.725859 0.19138
92 1 0.65256 0.606792 0.222695
79 1 0.506966 0.576955 0.180127
283 1 0.350951 0.525929 0.190772
203 1 0.665669 0.740204 0.0693375
116 1 0.362041 0.554252 0.385599
193 1 0.394661 0.626469 0.278612
111 1 0.529818 0.68227 0.309926
50 1 0.655292 0.655733 0.422305
257 1 0.530551 0.523019 0.313578
77 1 0.425684 0.713495 0.41633
333 2 0.404727 0.611065 0.466579
75 1 0.610558 0.557232 0.472335
221 1 0.395281 0.661276 0.583958
134 1 0.432632 0.504246 0.7024
355 2 0.53569 0.65423 0.517838
331 2 0.342384 0.530347 0.616199
173 1 0.579225 0.61089 0.679904
85 1 0.348516 0.603005 0.719976
341 2 0.49309 0.739619 0.601161
156 1 0.423007 0.521305 0.516202
223 1 0.51914 0.60156 0.826497
121 1 0.496866 0.586109 0.950445
143 1 0.622319 0.656792 0.94207
220 1 0.366064 0.589881 0.992265
27 1 0.378367 0.655215 0.832293
311 2 0.491821 0.726205 0.792097
201 1 0.661504 0.557919 0.770302
255 1 0.538619 0.906456 0.140603
132 1 0.441444 0.838084 0.237516
141 1 0.636587 0.901026 0.223288
72 1 0.46268 0.980846 0.0358278
135 1 0.65982 0.759869 0.236261
252 1 0.431553 0.870515 0.435419
348 2 0.366147 0.796091 0.310635
295 2 0.416592 0.907967 0.328152
14 1 0.531047 0.789007 0.448041
87 1 0.582692 0.980236 0.459264
212 1 0.609456 0.888707 0.371458
162 1 0.505959 0.927299 0.719195
269 1 0.581725 0.79271 0.678149
49 1 0.615396 0.769567 0.556367
93 1 0.48115 0.860954 0.567716
7 1 0.652462 0.894762 0.556205
327 2 0.408068 0.777682 0.51608
179 1 0.393818 0.870438 0.966439
60 1 0.578028 0.985706 0.842021
301 2 0.402262 0.917089 0.805395
65 1 0.479086 0.860672 0.853758
322 2 0.340977 0.817645 0.809962
122 1 0.58312 0.927357 0.977556
138 1 0.619395 0.780282 0.927934
88 1 0.599427 0.852792 0.796916
6 1 0.47376 0.758091 0.94623
240 1 0.859168 0.0451143 0.144948
129 1 0.745541 0.0925897 0.218253
250 1 0.909371 0.155175 0.0322345
256 1 0.860144 0.173671 0.141533
106 1 0.796 0.12668 0.338118
35 1 0.908384 0.12584 0.416481
340 2 0.934609 0.217157 0.268653
63 1 0.940573 0.111884 0.282216
16 1 0.832079 0.0231348 0.408242
330 2 0.81284 0.104001 0.468612
178 1 0.99745 0.237777 0.377782
210 1 0.884177 0.0994993 0.578392
166 1 0.669294 0.169877 0.642868
241 1 0.790381 0.188974 0.66653
171 1 0.89697 0.0608077 0.734934
319 2 0.74833 0.056418 0.690735
165 1 0.752608 0.0956221 0.552664
169 1 0.943018 0.24003 0.528621
314 2 0.86866 0.208909 0.608537
124 1 0.702948 0.237505 0.509908
55 1 0.981402 0.1595 0.708177
102 1 0.901255 0.0465457 0.859534
292 2 0.999713 0.127938 0.979721
175 1 0.870444 0.176723 0.787658
31 1 0.713858 0.114945 0.812639
184 1 0.86637 0.236866 0.919314
28 1 0.788598 0.116649 0.93768
83 1 0.735059 0.240758 0.844881
54 1 0.726031 0.0044601 0.984223
163 1 0.70664 0.198296 0.989053
160 1 0.991441 0.19274 0.853279
19 1 0.880829 0.0407827 0.995883
80 1 0.937682 0.299947 0.00959877
218 1 0.792083 0.30474 0.0169749
43 1 0.850964 0.291293 0.174734
262 1 0.770865 0.493988 0.179173
115 1 0.912726 0.418658 0.161672
29 1 0.694146 0.386334 0.142806
296 2 0.774264 0.25191 0.103623
302 2 0.708035 0.348638 0.23854
139 1 0.974876 0.346693 0.304162
226 1 0.908828 0.48182 0.268383
313 2 0.947975 0.394535 0.414938
64 1 0.877789 0.269526 0.412808
159 1 0.84259 0.449205 0.402698
195 1 0.757566 0.453436 0.296759
119 1 0.727315 0.326509 0.387197
343 2 0.831112 0.376904 0.27217
153 1 0.691198 0.450944 0.465904
177 1 0.788086 0.263893 0.28215
44 1 0.990976 0.422941 0.657422
347 2 0.781666 0.463771 0.662175
312 2 0.694766 0.468132 0.57841
358 2 0.825106 0.353373 0.56096
214 1 0.89887 0.422965 0.527753
20 1 0.80544 0.345028 0.657148
112 1 0.96467 0.287568 0.645916
110 1 0.682428 0.395528 0.718892
109 1 0.942357 0.364271 0.883195
281 1 0.791877 0.354048 0.898958
24 1 0.893287 0.496218 0.842113
213 1 0.761661 0.470402 0.802558
205 1 0.818609 0.463174 0.959568
242 1 0.870828 0.364364 0.767201
174 1 0.739261 0.600669 0.123611
211 1 0.932569 0.587562 0.195089
140 1 0.887288 0.670481 0.0691411
198 1 0.8678 0.723767 0.193997
39 1 0.922193 0.526872 0.0352177
154 1 0.950578 0.507791 0.417473
26 1 0.988466 0.714267 0.469277
229 1 0.671851 0.540652 0.356375
236 1 0.787253 0.645977 0.279768
278 1 0.955222 0.690248 0.329635
183 1 0.848823 0.598474 0.425601
329 2 0.813513 0.696166 0.573314
227 1 0.697115 0.720107 0.65698
254 1 0.8731 0.597117 0.56139
261 1 0.744485 0.574886 0.671088
207 1 0.865973 0.55002 0.724954
234 1 0.963942 0.623208 0.625973
266 1 0.712559 0.631999 0.531071
101 1 0.977217 0.60402 0.958083
239 1 0.673904 0.53726 0.947474
265 1 0.861991 0.640555 0.888371
73 1 0.720409 0.652702 0.856182
291 2 0.868924 0.70402 0.794202
90 1 0.990305 0.51187 0.763047
219 1 0.770367 0.638689 0.994314
84 1 0.767128 0.900676 0.146847
238 1 0.843755 0.810774 0.0328667
217 1 0.966821 0.947077 0.116631
67 1 0.708192 0.874718 0.0337407
351 2 0.782614 0.791925 0.109261
324 2 0.826876 0.931201 0.0530429
310 2 0.987412 0.808617 0.0393096
251 1 0.914997 0.857954 0.197894
290 2 0.79155 0.899276 0.287406
279 1 0.68974 0.991755 0.340052
204 1 0.843145 0.751909 0.438724
168 1 0.896467 0.887721 0.397798
146 1 0.754303 0.929772 0.443353
190 1 0.946196 0.967152 0.264182
125 1 0.981353 0.822065 0.329044
170 1 0.795543 0.786369 0.27615
318 2 0.697808 0.770555 0.338343
150 1 0.799262 0.912024 0.565114
41 1 0.816715 0.906064 0.73312
336 2 0.977462 0.863223 0.651394
304 2 0.728351 0.829086 0.647106
209 1 0.691882 0.92411 0.729335
145 1 0.907551 0.945869 0.614631
245 1 0.728896 0.797854 0.50238
268 1 0.973887 0.752294 0.647509
37 1 0.909917 0.845039 0.522026
89 1 0.873615 0.891122 0.882891
22 1 0.749777 0.787205 0.86205
12 1 0.714814 0.924529 0.882178
235 1 0.901718 0.804682 0.763273
120 1 0.989203 0.919151 0.808189
352 2 0.873504 0.970246 0.796246
356 2 0.81063 0.994673 0.888011
191 1 0.979594 0.814808 0.911199
334 2 0.842522 0.751785 0.916358
ITEM: TIMESTEP
10000
ITEM: NUMBER OF ATOMS
360
ITEM: BOX BOUNDS pp pp pp
0.0000000000000000e+00 6.6943295008216896e+00
0.0000000000000000e+00 6.6943295008216896e+00
0.0000000000000000e+00 6.6943295008216896e+00
ITEM: ATOMS id type xs ys zs
126 1 0.276282 0.068531 0.182226
71 1 0.0914487 0.165041 0.218455
237 1 0.19462 0.20852 0.123333
97 1 0.092617 0.218734 0.0102833
208 1 0.12934 0.0408626 0.0498435
224 1 0.250724 0.121706 0.0166449
260 1 0.132679 0.0250411 0.238813
128 1 0.243708 0.0806591 0.437365
137 1 0.0871646 0.1676 0.383651
96 1 0.221939 0.178658 0.312014
30 1 0.0573715 0.0220619 0.38663
325 2 0.0228676 0.053584 0.275097
330 2 0.0975047 0.0980004 0.644443
225 1 0.112859 0.131246 0.52531
51 1 0.236351 0.215766 0.513143
66 1 0.183755 0.206307 0.65224
206 1 0.0343366 0.172291 0.730061
346 2 0.230452 0.0973015 0.604784
2 1 0.331338 0.0979376 0.697394
175 1 0.00364186 0.248027 0.611877
10 1 0.195946 0.00397633 0.686655
131 1 0.198069 0.0346046 0.895167
258 1 0.0424508 0.127941 0.903425
58 1 0.162017 0.122776 0.782378
303 2 0.300006 0.11556 0.903377
109 1 0.212592 0.206352 0.908691
81 1 0.0511707 0.0220921 0.773226
332 2 0.273276 0.0468532 0.792392
160 1 0.297788 0.207188 0.781172
85 1 0.300294 0.272053 0.0436966
78 1 0.298952 0.433917 0.0604402
211 1 0.0707472 0.426924 0.181493
244 1 0.167085 0.34588 0.068797
139 1 0.226406 0.484318 0.177815
267 1 0.24978 0.346709 0.23312
178 1 0.0181978 0.263534 0.149943
101 1 0.0958501 0.488555 0.0266104
338 2 0.288175 0.476112 0.451439
343 2 0.0689586 0.465559 0.30337
36 1 0.17164 0.314541 0.38974
76 1 0.0143493 0.268492 0.458535
236 1 0.0625325 0.427119 0.436924
25 1 0.189312 0.442709 0.332774
306 2 0.00328658 0.28492 0.339224
280 1 0.332087 0.250752 0.392476
69 1 0.284322 0.351606 0.495928
82 1 0.097544 0.306927 0.271305
307 2 0.108855 0.307085 0.661902
243 1 0.240449 0.351574 0.671141
118 1 0.136013 0.314738 0.542802
32 1 0.173793 0.479297 0.519864
86 1 0.047332 0.435237 0.601151
132 1 0.307125 0.461827 0.616309
103 1 0.0115346 0.361436 0.736025
90 1 0.213716 0.439664 0.8104
314 2 0.251294 0.328285 0.805035
286 1 0.254724 0.35552 0.942886
274 1 0.129777 0.283465 0.794465
149 1 0.106788 0.355404 0.93279
1 1 0.0576444 0.496235 0.865771
189 1 0.20412 0.662369 0.209215
342 2 0.177297 0.565917 0.0659712
278 1 0.0565963 0.717008 0.244507
199 1 0.0844968 0.590176 0.15008
334 2 0.131269 0.729771 0.102291
91 1 0.13376 0.657814 0.010172
220 1 0.273778 0.61959 0.0264233
48 1 0.103597 0.59612 0.311051
116 1 0.0992935 0.740895 0.38567
196 1 0.213565 0.579593 0.409309
254 1 0.0726767 0.589888 0.47186
111 1 0.324147 0.607707 0.291725
87 1 0.293738 0.737498 0.451856
47 1 0.165588 0.699021 0.525331
234 1 0.139261 0.698541 0.688712
331 2 0.325096 0.740054 0.597966
354 2 0.178672 0.593032 0.566014
154 1 0.0322476 0.606511 0.617793
207 1 0.259825 0.612934 0.676885
151 1 0.310633 0.601715 0.522191
117 1 0.154552 0.505326 0.677719
216 1 0.331808 0.509021 0.744136
161 1 0.00658656 0.719212 0.513873
265 1 0.0330461 0.624536 0.766757
62 1 0.280108 0.6659 0.824124
345 2 0.125636 0.552816 0.78545
186 1 0.130852 0.703503 0.85843
360 2 0.0461841 0.629838 0.907663
231 1 0.219938 0.529366 0.923459
215 1 0.139649 0.832199 0.159601
315 2 0.326708 0.857521 0.0542001
23 1 0.21629 0.91779 0.021923
310 2 0.148143 0.953866 0.134034
3 1 0.261208 0.917876 0.171403
238 1 0.0168903 0.949643 0.18942
322 2 0.0405655 0.940295 0.0693608
167 1 0.098657 0.826935 0.00822656
193 1 0.285766 0.755772 0.133712
172 1 0.0837331 0.881167 0.30293
17 1 0.258418 0.975464 0.319117
59 1 0.208724 0.797299 0.282704
100 1 0.214282 0.880827 0.423024
295 2 0.303512 0.847349 0.343892
146 1 0.0221132 0.917979 0.473916
268 1 0.0861922 0.819153 0.570061
232 1 0.0540647 0.976904 0.620625
114 1 0.241647 0.843297 0.563525
247 1 0.153128 0.967652 0.53303
18 1 0.144196 0.850911 0.712014
221 1 0.270914 0.767228 0.721213
127 1 0.304633 0.989379 0.564598
5 1 0.323192 0.946446 0.91411
191 1 0.201576 0.844194 0.849024
357 2 0.0588627 0.76871 0.774722
4 1 0.282931 0.916025 0.765136
40 1 0.0697931 0.975745 0.937031
327 2 0.163737 0.95724 0.803899
9 1 0.255328 0.757882 0.96675
105 1 0.0338882 0.845586 0.871597
113 1 0.435841 0.055537 0.199321
270 1 0.548746 0.140935 0.121106
233 1 0.392819 0.149117 0.0902253
181 1 0.354307 0.223584 0.233948
94 1 0.50243 0.00578678 0.017812
356 2 0.475237 0.188907 0.214447
344 2 0.63177 0.223139 0.0352443
249 1 0.634736 0.0922606 0.00712538
35 1 0.606645 0.14869 0.397903
13 1 0.485991 0.0445897 0.432595
177 1 0.466747 0.181514 0.345821
304 2 0.370805 0.00236367 0.45812
95 1 0.35946 0.0935267 0.341828
279 1 0.557013 0.0768482 0.280011
15 1 0.587801 0.222198 0.267669
104 1 0.363736 0.226662 0.603119
259 1 0.499283 0.210054 0.510494
102 1 0.614462 0.0172292 0.643444
275 1 0.467679 0.0856162 0.629157
328 2 0.583308 0.156897 0.587032
169 1 0.611248 0.0501285 0.509361
108 1 0.366037 0.125645 0.505488
60 1 0.397992 0.0745175 0.960876
34 1 0.502232 0.207691 0.981174
31 1 0.468359 0.173966 0.800033
12 1 0.553985 0.0800254 0.887162
19 1 0.631226 0.248024 0.905267
148 1 0.384566 0.0472718 0.819472
42 1 0.374215 0.248215 0.911836
93 1 0.528205 0.00699344 0.7605
210 1 0.613206 0.165218 0.755713
283 1 0.507746 0.275221 0.126643
106 1 0.546576 0.413068 0.155345
79 1 0.434399 0.478856 0.0957125
202 1 0.381133 0.354849 0.143574
335 2 0.425833 0.298365 0.0393844
313 2 0.527071 0.499592 0.22967
33 1 0.579297 0.368634 0.00324329
200 1 0.622196 0.4489 0.452432
185 1 0.350503 0.39143 0.368265
144 1 0.433803 0.327397 0.479904
11 1 0.55865 0.290115 0.402199
8 1 0.498069 0.430568 0.369043
157 1 0.62173 0.390225 0.283203
53 1 0.487087 0.328298 0.273715
255 1 0.401321 0.464547 0.254719
134 1 0.458317 0.406869 0.67265
323 2 0.395345 0.38095 0.572324
176 1 0.498268 0.264307 0.657892
46 1 0.569367 0.373451 0.569715
316 2 0.590796 0.41575 0.706425
153 1 0.468884 0.469661 0.521729
166 1 0.647119 0.269988 0.524262
110 1 0.664179 0.318184 0.684695
218 1 0.651668 0.480991 0.909722
28 1 0.432925 0.379804 0.950707
201 1 0.528078 0.469985 0.832246
337 2 0.519664 0.306546 0.905684
276 1 0.559935 0.331457 0.79752
197 1 0.399323 0.346101 0.792081
246 1 0.370541 0.497289 0.906666
239 1 0.571533 0.575714 0.13189
293 2 0.633367 0.516651 0.0338943
290 2 0.579693 0.677126 0.20395
305 2 0.468091 0.640076 0.1188
27 1 0.583062 0.703352 0.0407067
179 1 0.424581 0.602801 0.0123747
348 2 0.375845 0.719273 0.211775
180 1 0.349601 0.587698 0.152754
141 1 0.486457 0.60575 0.248218
339 2 0.420784 0.645635 0.36723
257 1 0.536805 0.573421 0.396653
52 1 0.382321 0.541178 0.402015
212 1 0.554027 0.711985 0.355663
156 1 0.43122 0.731443 0.475922
38 1 0.630797 0.567095 0.260849
333 2 0.441603 0.608843 0.488617
300 2 0.409018 0.533139 0.621207
70 1 0.466132 0.650571 0.614008
133 1 0.556106 0.517584 0.644881
164 1 0.4672 0.565852 0.741316
223 1 0.633 0.651603 0.639559
245 1 0.634591 0.576403 0.512208
173 1 0.58438 0.724385 0.506055
68 1 0.637792 0.558928 0.758144
311 2 0.45562 0.690929 0.914337
326 2 0.52755 0.595272 0.853473
122 1 0.556076 0.690941 0.761932
6 1 0.649711 0.68436 0.879488
74 1 0.408672 0.694707 0.753687
143 1 0.550903 0.559635 0.971687
297 2 0.481157 0.924684 0.158175
287 1 0.520189 0.860748 0.0568135
253 1 0.379057 0.974074 0.0814943
45 1 0.384025 0.844962 0.197626
163 1 0.601928 0.985922 0.124173
61 1 0.407302 0.752472 0.0268528
289 2 0.360191 0.966676 0.230331
107 1 0.486003 0.754866 0.15993
72 1 0.632083 0.820758 0.131885
273 1 0.537232 0.837598 0.421457
99 1 0.523981 0.852138 0.259022
136 1 0.402462 0.777187 0.326392
21 1 0.443261 0.942222 0.318824
248 1 0.359864 0.866256 0.448604
165 1 0.597072 0.965866 0.374793
252 1 0.45976 0.966618 0.538668
341 2 0.548505 0.760382 0.652341
121 1 0.53979 0.888611 0.650611
147 1 0.399596 0.966646 0.695417
77 1 0.630945 0.895762 0.528544
336 2 0.516601 0.841812 0.540145
194 1 0.404736 0.838455 0.594867
284 1 0.446461 0.843627 0.742669
219 1 0.665664 0.807206 0.646188
162 1 0.468153 0.927737 0.873322
57 1 0.619659 0.951523 0.928715
269 1 0.59639 0.861092 0.789068
222 1 0.362277 0.812138 0.853392
138 1 0.549436 0.791358 0.926548
301 2 0.432741 0.890464 0.979607
155 1 0.891505 0.0377677 0.223864
98 1 0.815505 0.0686465 0.0384458
256 1 0.87352 0.19391 0.169056
56 1 0.698116 0.114362 0.168628
63 1 0.759017 0.206829 0.0531558
217 1 0.99612 0.0846012 0.108358
230 1 0.927523 0.200947 0.00271194
115 1 0.953418 0.177092 0.315377
119 1 0.739569 0.194327 0.306693
159 1 0.869927 0.233314 0.450385
16 1 0.705489 0.0464717 0.304746
150 1 0.859206 0.0757829 0.371882
264 1 0.966077 0.126497 0.483844
240 1 0.759078 0.147012 0.478392
112 1 0.906341 0.118226 0.634055
319 2 0.784194 0.177369 0.711448
130 1 0.699944 0.166389 0.620219
124 1 0.76582 0.0370818 0.588352
235 1 0.809582 0.0579399 0.738017
241 1 0.837262 0.240858 0.609535
54 1 0.735905 0.0984744 0.886158
353 2 0.983018 0.0447329 0.988198
271 1 0.8757 0.103115 0.891968
352 2 0.950574 0.124633 0.794607
55 1 0.891256 0.217683 0.754131
142 1 0.757664 0.247838 0.80859
67 1 0.857921 0.331252 0.10579
263 1 0.695521 0.483506 0.133856
229 1 0.906645 0.426981 0.227835
29 1 0.667301 0.304959 0.131357
296 2 0.838007 0.461732 0.105904
188 1 0.99445 0.359613 0.0452052
80 1 0.977182 0.496737 0.0912852
75 1 0.764935 0.371125 0.219285
340 2 0.760771 0.254281 0.187712
64 1 0.870441 0.31195 0.299718
20 1 0.770012 0.426457 0.496932
214 1 0.883826 0.443868 0.377684
50 1 0.717098 0.319093 0.401255
92 1 0.720419 0.489922 0.34664
347 2 0.922597 0.326527 0.657887
261 1 0.700111 0.491347 0.626479
242 1 0.923393 0.37342 0.536565
324 2 0.836144 0.48538 0.598596
281 1 0.838856 0.417413 0.701746
308 2 0.717301 0.43326 0.746073
350 2 0.79184 0.30226 0.503424
359 2 0.756396 0.36787 0.618273
299 2 0.700416 0.374787 0.864728
43 1 0.729061 0.328745 0.979524
192 1 0.873496 0.43278 0.991055
184 1 0.852073 0.28828 0.921385
294 2 0.861762 0.345774 0.792762
44 1 0.948532 0.407862 0.868646
309 2 0.9868 0.460024 0.972252
250 1 0.992117 0.267909 0.875531
302 2 0.86412 0.582608 0.089667
152 1 0.87153 0.67554 0.182398
198 1 0.716624 0.663512 0.140971
195 1 0.781733 0.552032 0.00342943
226 1 0.808614 0.5468 0.199751
88 1 0.84232 0.70991 0.0270985
262 1 0.968887 0.564999 0.244059
277 1 0.98991 0.677002 0.0904649
320 2 0.71504 0.74954 0.0439536
285 1 0.836326 0.592638 0.341421
291 2 0.909529 0.634626 0.463148
204 1 0.699999 0.644804 0.381899
321 2 0.754181 0.637225 0.256937
183 1 0.977996 0.649412 0.369039
266 1 0.786326 0.567772 0.49149
168 1 0.805233 0.74929 0.326519
355 2 0.992507 0.513947 0.387829
158 1 0.672585 0.738927 0.26389
7 1 0.74844 0.7127 0.52491
37 1 0.987408 0.733944 0.663708
213 1 0.884426 0.655911 0.576478
312 2 0.761271 0.623172 0.631947
205 1 0.880506 0.623917 0.730758
26 1 0.935749 0.527249 0.531546
123 1 0.964192 0.50191 0.712452
24 1 0.850643 0.638766 0.875652
228 1 0.9844 0.729459 0.953649
83 1 0.771834 0.5173 0.815495
298 2 0.770515 0.692209 0.943689
317 2 0.697719 0.58972 0.942263
39 1 0.943236 0.574658 0.97642
22 1 0.76681 0.689102 0.770947
358 2 0.906986 0.534414 0.824675
351 2 0.881174 0.916647 0.206235
135 1 0.976737 0.817831 0.0906785
187 1 0.755438 0.868109 0.0519447
251 1 0.794149 0.822511 0.195137
125 1 0.910389 0.963579 0.0751663
129 1 0.746787 0.966861 0.170892
203 1 0.941882 0.809818 0.247703
349 2 0.706558 0.98132 0.0250104
84 1 0.705181 0.890775 0.292347
170 1 0.826228 0.88268 0.410455
190 1 0.951348 0.950174 0.320252
14 1 0.695779 0.809418 0.422947
182 1 0.964463 0.803665 0.404345
171 1 0.731379 0.992799 0.434672
329 2 0.869638 0.767931 0.477066
227 1 0.936263 0.840273 0.563004
318 2 0.687791 0.936829 0.677346
282 1 0.770912 0.874793 0.557087
272 1 0.989026 0.876706 0.714462
209 1 0.834345 0.922279 0.682647
292 2 0.937369 0.992516 0.67642
145 1 0.884522 0.980842 0.522564
49 1 0.826372 0.767844 0.66175
89 1 0.919175 0.894378 0.955663
73 1 0.73424 0.81897 0.780691
140 1 0.773283 0.95243 0.919708
120 1 0.895531 0.965341 0.819961
174 1 0.833898 0.804694 0.900243
65 1 0.686803 0.812618 0.937057
41 1 0.692134 0.983649 0.802912
288 1 0.922648 0.758918 0.794353
