ITEM: TIMESTEP
0
ITEM: NUMBER OF ATOMS
360
ITEM: BOX BOUNDS pp pp pp
0.0000000000000000e+00 6.6943295008216896e+00
0.0000000000000000e+00 6.6943295008216896e+00
0.0000000000000000e+00 6.6943295008216896e+00
ITEM: ATOMS id type xs ys zs
126 1 0.276282 0.068531 0.182226
71 1 0.0914487 0.165041 0.218455
237 1 0.19462 0.20852 0.123333
97 1 0.092617 0.218734 0.0102833
208 1 0.12934 0.0408626 0.0498435
224 1 0.250724 0.121706 0.0166449
260 1 0.132679 0.0250411 0.238813
128 1 0.243708 0.0806591 0.437365
137 1 0.0871646 0.1676 0.383651
96 1 0.221939 0.178658 0.312014
30 1 0.0573715 0.0220619 0.38663
325 2 0.0228676 0.053584 0.275097
330 2 0.0975047 0.0980004 0.644443
225 1 0.112859 0.131246 0.52531
51 1 0.236351 0.215766 0.513143
66 1 0.183755 0.206307 0.65224
206 1 0.0343366 0.172291 0.730061
346 2 0.230452 0.0973015 0.604784
2 1 0.331338 0.0979376 0.697394
175 1 0.00364186 0.248027 0.611877
10 1 0.195946 0.00397633 0.686655
131 1 0.198069 0.0346046 0.895167
258 1 0.0424508 0.127941 0.903425
58 1 0.162017 0.122776 0.782378
303 2 0.300006 0.11556 0.903377
109 1 0.212592 0.206352 0.908691
81 1 0.0511707 0.0220921 0.773226
332 2 0.273276 0.0468532 0.792392
160 1 0.297788 0.207188 0.781172
85 1 0.300294 0.272053 0.0436966
78 1 0.298952 0.433917 0.0604402
211 1 0.0707472 0.426924 0.181493
244 1 0.167085 0.34588 0.068797
139 1 0.226406 0.484318 0.177815
267 1 0.24978 0.346709 0.23312
178 1 0.0181978 0.263534 0.149943
101 1 0.0958501 0.488555 0.0266104
338 2 0.288175 0.476112 0.451439
343 2 0.0689586 0.465559 0.30337
36 1 0.17164 0.314541 0.38974
76 1 0.0143493 0.268492 0.458535
236 1 0.0625325 0.427119 0.436924
25 1 0.189312 0.442709 0.332774
306 2 0.00328658 0.28492 0.339224
280 1 0.332087 0.250752 0.392476
69 1 0.284322 0.351606 0.495928
82 1 0.097544 0.306927 0.271305
307 2 0.108855 0.307085 0.661902
243 1 0.240449 0.351574 0.671141
118 1 0.136013 0.314738 0.542802
32 1 0.173793 0.479297 0.519864
86 1 0.047332 0.435237 0.601151
132 1 0.307125 0.461827 0.616309
103 1 0.0115346 0.361436 0.736025
90 1 0.213716 0.439664 0.8104
314 2 0.251294 0.328285 0.805035
286 1 0.254724 0.35552 0.942886
274 1 0.129777 0.283465 0.794465
149 1 0.106788 0.355404 0.93279
1 1 0.0576444 0.496235 0.865771
189 1 0.20412 0.662369 0.209215
342 2 0.177297 0.565917 0.0659712
278 1 0.0565963 0.717008 0.244507
199 1 0.0844968 0.590176 0.15008
334 2 0.131269 0.729771 0.102291
91 1 0.13376 0.657814 0.010172
220 1 0.273778 0.61959 0.0264233
48 1 0.103597 0.59612 0.311051
116 1 0.0992935 0.740895 0.38567
196 1 0.213565 0.579593 0.409309
254 1 0.0726767 0.589888 0.47186
111 1 0.324147 0.607707 0.291725
87 1 0.293738 0.737498 0.451856
47 1 0.165588 0.699021 0.525331
234 1 0.139261 0.698541 0.688712
331 2 0.325096 0.740054 0.597966
354 2 0.178672 0.593032 0.566014
154 1 0.0322476 0.606511 0.617793
207 1 0.259825 0.612934 0.676885
151 1 0.310633 0.601715 0.522191
117 1 0.154552 0.505326 0.677719
216 1 0.331808 0.509021 0.744136
161 1 0.00658656 0.719212 0.513873
265 1 0.0330461 0.624536 0.766757
62 1 0.280108 0.6659 0.824124
345 2 0.125636 0.552816 0.78545
186 1 0.130852 0.703503 0.85843
360 2 0.0461841 0.629838 0.907663
231 1 0.219938 0.529366 0.923459
215 1 0.139649 0.832199 0.159601
315 2 0.326708 0.857521 0.0542001
23 1 0.21629 0.91779 0.021923
310 2 0.148143 0.953866 0.134034
3 1 0.261208 0.917876 0.171403
238 1 0.0168903 0.949643 0.18942
322 2 0.0405655 0.940295 0.0693608
167 1 0.098657 0.826935 0.00822656
193 1 0.285766 0.755772 0.133712
172 1 0.0837331 0.881167 0.30293
17 1 0.258418 0.975464 0.319117
59 1 0.208724 0.797299 0.282704
100 1 0.214282 0.880827 0.423024
295 2 0.303512 0.847349 0.343892
146 1 0.0221132 0.917979 0.473916
268 1 0.0861922 0.819153 0.570061
232 1 0.0540647 0.976904 0.620625
114 1 0.241647 0.843297 0.563525
247 1 0.153128 0.967652 0.53303
18 1 0.144196 0.850911 0.712014
221 1 0.270914 0.767228 0.721213
127 1 0.304633 0.989379 0.564598
5 1 0.323192 0.946446 0.91411
191 1 0.201576 0.844194 0.849024
357 2 0.0588627 0.76871 0.774722
4 1 0.282931 0.916025 0.765136
40 1 0.0697931 0.975745 0.937031
327 2 0.163737 0.95724 0.803899
9 1 0.255328 0.757882 0.96675
105 1 0.0338882 0.845586 0.871597
113 1 0.435841 0.055537 0.199321
270 1 0.548746 0.140935 0.121106
233 1 0.392819 0.149117 0.0902253
181 1 0.354307 0.223584 0.233948
94 1 0.50243 0.00578678 0.017812
356 2 0.475237 0.188907 0.214447
344 2 0.63177 0.223139 0.0352443
249 1 0.634736 0.0922606 0.00712538
35 1 0.606645 0.14869 0.397903
13 1 0.485991 0.0445897 0.432595
177 1 0.466747 0.181514 0.345821
304 2 0.370805 0.00236367 0.45812
95 1 0.35946 0.0935267 0.341828
279 1 0.557013 0.0768482 0.280011
15 1 0.587801 0.222198 0.267669
104 1 0.363736 0.226662 0.603119
259 1 0.499283 0.210054 0.510494
102 1 0.614462 0.0172292 0.643444
275 1 0.467679 0.0856162 0.629157
328 2 0.583308 0.156897 0.587032
169 1 0.611248 0.0501285 0.509361
108 1 0.366037 0.125645 0.505488
60 1 0.397992 0.0745175 0.960876
34 1 0.502232 0.207691 0.981174
31 1 0.468359 0.173966 0.800033
12 1 0.553985 0.0800254 0.887162
19 1 0.631226 0.248024 0.905267
148 1 0.384566 0.0472718 0.819472
42 1 0.374215 0.248215 0.911836
93 1 0.528205 0.00699344 0.7605
210 1 0.613206 0.165218 0.755713
283 1 0.507746 0.275221 0.126643
106 1 0.546576 0.413068 0.155345
79 1 0.434399 0.478856 0.0957125
202 1 0.381133 0.354849 0.143574
335 2 0.425833 0.298365 0.0393844
313 2 0.527071 0.499592 0.22967
33 1 0.579297 0.368634 0.00324329
200 1 0.622196 0.4489 0.452432
185 1 0.350503 0.39143 0.368265
144 1 0.433803 0.327397 0.479904
11 1 0.55865 0.290115 0.402199
8 1 0.498069 0.430568 0.369043
157 1 0.62173 0.390225 0.283203
53 1 0.487087 0.328298 0.273715
255 1 0.401321 0.464547 0.254719
134 1 0.458317 0.406869 0.67265
323 2 0.395345 0.38095 0.572324
176 1 0.498268 0.264307 0.657892
46 1 0.569367 0.373451 0.569715
316 2 0.590796 0.41575 0.706425
153 1 0.468884 0.469661 0.521729
166 1 0.647119 0.269988 0.524262
110 1 0.664179 0.318184 0.684695
218 1 0.651668 0.480991 0.909722
28 1 0.432925 0.379804 0.950707
201 1 0.528078 0.469985 0.832246
337 2 0.519664 0.306546 0.905684
276 1 0.559935 0.331457 0.79752
197 1 0.399323 0.346101 0.792081
246 1 0.370541 0.497289 0.906666
239 1 0.571533 0.575714 0.13189
293 2 0.633367 0.516651 0.0338943
290 2 0.579693 0.677126 0.20395
305 2 0.468091 0.640076 0.1188
27 1 0.583062 0.703352 0.0407067
179 1 0.424581 0.602801 0.0123747
348 2 0.375845 0.719273 0.211775
180 1 0.349601 0.587698 0.152754
141 1 0.486457 0.60575 0.248218
339 2 0.420784 0.645635 0.36723
257 1 0.536805 0.573421 0.396653
52 1 0.382321 0.541178 0.402015
212 1 0.554027 0.711985 0.355663
156 1 0.43122 0.731443 0.475922
38 1 0.630797 0.567095 0.260849
333 2 0.441603 0.608843 0.488617
300 2 0.409018 0.533139 0.621207
70 1 0.466132 0.650571 0.614008
133 1 0.556106 0.517584 0.644881
164 1 0.4672 0.565852 0.741316
223 1 0.633 0.651603 0.639559
245 1 0.634591 0.576403 0.512208
173 1 0.58438 0.724385 0.506055
68 1 0.637792 0.558928 0.758144
311 2 0.45562 0.690929 0.914337
326 2 0.52755 0.595272 0.853473
122 1 0.556076 0.690941 0.761932
6 1 0.649711 0.68436 0.879488
74 1 0.408672 0.694707 0.753687
143 1 0.550903 0.559635 0.971687
297 2 0.481157 0.924684 0.158175
287 1 0.520189 0.860748 0.0568135
253 1 0.379057 0.974074 0.0814943
45 1 0.384025 0.844962 0.197626
163 1 0.601928 0.985922 0.124173
61 1 0.407302 0.752472 0.0268528
289 2 0.360191 0.966676 0.230331
107 1 0.486003 0.754866 0.15993
72 1 0.632083 0.820758 0.131885
273 1 0.537232 0.837598 0.421457
99 1 0.523981 0.852138 0.259022
136 1 0.402462 0.777187 0.326392
21 1 0.443261 0.942222 0.318824
248 1 0.359864 0.866256 0.448604
165 1 0.597072 0.965866 0.374793
252 1 0.45976 0.966618 0.538668
341 2 0.548505 0.760382 0.652341
121 1 0.53979 0.888611 0.650611
147 1 0.399596 0.966646 0.695417
77 1 0.630945 0.895762 0.528544
336 2 0.516601 0.841812 0.540145
194 1 0.404736 0.838455 0.594867
284 1 0.446461 0.843627 0.742669
219 1 0.665664 0.807206 0.646188
162 1 0.468153 0.927737 0.873322
57 1 0.619659 0.951523 0.928715
269 1 0.59639 0.861092 0.789068
222 1 0.362277 0.812138 0.853392
138 1 0.549436 0.791358 0.926548
301 2 0.432741 0.890464 0.979607
155 1 0.891505 0.0377677 0.223864
98 1 0.815505 0.0686465 0.0384458
256 1 0.87352 0.19391 0.169056
56 1 0.698116 0.114362 0.168628
63 1 0.759017 0.206829 0.0531558
217 1 0.99612 0.0846012 0.108358
230 1 0.927523 0.200947 0.00271194
115 1 0.953418 0.177092 0.315377
119 1 0.739569 0.194327 0.306693
159 1 0.869927 0.233314 0.450385
16 1 0.705489 0.0464717 0.304746
150 1 0.859206 0.0757829 0.371882
264 1 0.966077 0.126497 0.483844
240 1 0.759078 0.147012 0.478392
112 1 0.906341 0.118226 0.634055
319 2 0.784194 0.177369 0.711448
130 1 0.699944 0.166389 0.620219
124 1 0.76582 0.0370818 0.588352
235 1 0.809582 0.0579399 0.738017
241 1 0.837262 0.240858 0.609535
54 1 0.735905 0.0984744 0.886158
353 2 0.983018 0.0447329 0.988198
271 1 0.8757 0.103115 0.891968
352 2 0.950574 0.124633 0.794607
55 1 0.891256 0.217683 0.754131
142 1 0.757664 0.247838 0.80859
67 1 0.857921 0.331252 0.10579
263 1 0.695521 0.483506 0.133856
229 1 0.906645 0.426981 0.227835
29 1 0.667301 0.304959 0.131357
296 2 0.838007 0.461732 0.105904
188 1 0.99445 0.359613 0.0452052
80 1 0.977182 0.496737 0.0912852
75 1 0.764935 0.371125 0.219285
340 2 0.760771 0.254281 0.187712
64 1 0.870441 0.31195 0.299718
20 1 0.770012 0.426457 0.496932
214 1 0.883826 0.443868 0.377684
50 1 0.717098 0.319093 0.401255
92 1 0.720419 0.489922 0.34664
347 2 0.922597 0.326527 0.657887
261 1 0.700111 0.491347 0.626479
242 1 0.923393 0.37342 0.536565
324 2 0.836144 0.48538 0.598596
281 1 0.838856 0.417413 0.701746
308 2 0.717301 0.43326 0.746073
350 2 0.79184 0.30226 0.503424
359 2 0.756396 0.36787 0.618273
299 2 0.700416 0.374787 0.864728
43 1 0.729061 0.328745 0.979524
192 1 0.873496 0.43278 0.991055
184 1 0.852073 0.28828 0.921385
294 2 0.861762 0.345774 0.792762
44 1 0.948532 0.407862 0.868646
309 2 0.9868 0.460024 0.972252
250 1 0.992117 0.267909 0.875531
302 2 0.86412 0.582608 0.089667
152 1 0.87153 0.67554 0.182398
198 1 0.716624 0.663512 0.140971
195 1 0.781733 0.552032 0.00342943
226 1 0.808614 0.5468 0.199751
88 1 0.84232 0.70991 0.0270985
262 1 0.968887 0.564999 0.244059
277 1 0.98991 0.677002 0.0904649
320 2 0.71504 0.74954 0.0439536
285 1 0.836326 0.592638 0.341421
291 2 0.909529 0.634626 0.463148
204 1 0.699999 0.644804 0.381899
321 2 0.754181 0.637225 0.256937
183 1 0.977996 0.649412 0.369039
266 1 0.786326 0.567772 0.49149
168 1 0.805233 0.74929 0.326519
355 2 0.992507 0.513947 0.387829
158 1 0.672585 0.738927 0.26389
7 1 0.74844 0.7127 0.52491
37 1 0.987408 0.733944 0.663708
213 1 0.884426 0.655911 0.576478
312 2 0.761271 0.623172 0.631947
205 1 0.880506 0.623917 0.730758
26 1 0.935749 0.527249 0.531546
123 1 0.964192 0.50191 0.712452
24 1 0.850643 0.638766 0.875652
228 1 0.9844 0.729459 0.953649
83 1 0.771834 0.5173 0.815495
298 2 0.770515 0.692209 0.943689
317 2 0.697719 0.58972 0.942263
39 1 0.943236 0.574658 0.97642
22 1 0.76681 0.689102 0.770947
358 2 0.906986 0.534414 0.824675
351 2 0.881174 0.916647 0.206235
135 1 0.976737 0.817831 0.0906785
187 1 0.755438 0.868109 0.0519447
251 1 0.794149 0.822511 0.195137
125 1 0.910389 0.963579 0.0751663
129 1 0.746787 0.966861 0.170892
203 1 0.941882 0.809818 0.247703
349 2 0.706558 0.98132 0.0250104
84 1 0.705181 0.890775 0.292347
170 1 0.826228 0.88268 0.410455
190 1 0.951348 0.950174 0.320252
14 1 0.695779 0.809418 0.422947
182 1 0.964463 0.803665 0.404345
171 1 0.731379 0.992799 0.434672
329 2 0.869638 0.767931 0.477066
227 1 0.936263 0.840273 0.563004
318 2 0.687791 0.936829 0.677346
282 1 0.770912 0.874793 0.557087
272 1 0.989026 0.876706 0.714462
209 1 0.834345 0.922279 0.682647
292 2 0.937369 0.992516 0.67642
145 1 0.884522 0.980842 0.522564
49 1 0.826372 0.767844 0.66175
89 1 0.919175 0.894378 0.955663
73 1 0.73424 0.81897 0.780691
140 1 0.773283 0.95243 0.919708
120 1 0.895531 0.965341 0.819961
174 1 0.833898 0.804694 0.900243
65 1 0.686803 0.812618 0.937057
41 1 0.692134 0.983649 0.802912
288 1 0.922648 0.758918 0.794353
ITEM: TIMESTEP
10000
ITEM: NUMBER OF ATOMS
360
ITEM: BOX BOUNDS pp pp pp
0.0000000000000000e+00 6.6943295008216896e+00
0.0000000000000000e+00 6.6943295008216896e+00
0.0000000000000000e+00 6.6943295008216896e+00
ITEM: ATOMS id type xs ys zs
253 1 0.286359 0.0225805 0.177635
327 2 0.188386 0.0138632 0.0664892
208 1 0.048619 0.0217827 0.0851474
310 2 0.0703109 0.161497 0.0450721
238 1 0.0372221 0.174563 0.195793
97 1 0.169666 0.127727 0.115414
126 1 0.28506 0.0938322 0.0161753
237 1 0.300927 0.203777 0.132362
3 1 0.102 0.0373893 0.237526
230 1 0.196544 0.234492 0.0148116
127 1 0.29399 0.173497 0.416707
71 1 0.229286 0.176058 0.264527
95 1 0.287864 0.0286883 0.32671
137 1 0.140612 0.0943942 0.366378
264 1 0.0233147 0.13199 0.443128
147 1 0.274767 0.0403956 0.481471
325 2 0.054065 0.186824 0.317631
247 1 0.117445 0.0103956 0.489847
66 1 0.165137 0.176921 0.495855
58 1 0.103792 0.0124215 0.662188
332 2 0.185967 0.0979052 0.586424
243 1 0.118125 0.17442 0.669492
346 2 0.045409 0.100109 0.576093
31 1 0.277802 0.0559998 0.657905
51 1 0.301481 0.19475 0.563095
160 1 0.278818 0.200651 0.732494
353 2 0.0138442 0.0602245 0.950319
258 1 0.140198 0.0815252 0.940746
109 1 0.183071 0.0710304 0.77959
271 1 0.0204668 0.112404 0.767918
184 1 0.0231194 0.188415 0.90455
131 1 0.327885 0.107981 0.869014
274 1 0.166266 0.219946 0.84825
335 2 0.310319 0.23021 0.858988
42 1 0.273925 0.362128 0.0563073
306 2 0.061539 0.404249 0.161507
342 2 0.212656 0.385765 0.164285
244 1 0.125129 0.385368 0.0615029
217 1 0.0160197 0.284659 0.0881714
260 1 0.15773 0.274474 0.165274
202 1 0.326885 0.44906 0.180492
25 1 0.231527 0.475575 0.338964
236 1 0.124402 0.348548 0.476813
69 1 0.304777 0.376393 0.426681
82 1 0.113561 0.380951 0.270139
355 2 0.115023 0.470981 0.401548
267 1 0.274315 0.322443 0.277226
307 2 0.239442 0.28219 0.483513
118 1 0.164276 0.263587 0.367546
123 1 0.216504 0.32121 0.617991
175 1 0.0232222 0.253684 0.562382
266 1 0.089292 0.407143 0.633834
103 1 0.0444218 0.299689 0.726203
86 1 0.0314294 0.464792 0.506852
32 1 0.206463 0.471654 0.512827
132 1 0.250478 0.482507 0.65697
323 2 0.332253 0.289117 0.656291
90 1 0.172493 0.372022 0.759218
345 2 0.0903457 0.481944 0.988657
250 1 0.0693317 0.360053 0.923012
231 1 0.25227 0.351898 0.908758
117 1 0.0463331 0.432047 0.786095
85 1 0.23042 0.495265 0.993831
348 2 0.179028 0.708321 0.0969895
262 1 0.0332045 0.608628 0.18071
220 1 0.141167 0.620945 0.016031
78 1 0.273239 0.608966 0.0997531
334 2 0.0329139 0.705072 0.0997586
139 1 0.189974 0.646867 0.239627
91 1 0.176063 0.520349 0.162041
180 1 0.328962 0.701963 0.235133
111 1 0.312035 0.667362 0.388611
278 1 0.0842198 0.694842 0.337569
48 1 0.174237 0.588387 0.413132
285 1 0.0909197 0.534737 0.298615
254 1 0.00885785 0.577862 0.412511
331 2 0.0496679 0.688347 0.470603
116 1 0.178436 0.727103 0.466751
207 1 0.105374 0.65921 0.715459
154 1 0.11651 0.601054 0.545476
47 1 0.273463 0.645084 0.530967
300 2 0.235534 0.64043 0.64731
354 2 0.137806 0.547897 0.673111
37 1 0.00611102 0.709008 0.581225
265 1 0.0025871 0.562383 0.660323
216 1 0.326377 0.600363 0.921303
1 1 0.00841949 0.534442 0.908609
357 2 0.0685297 0.576112 0.808921
164 1 0.249907 0.639398 0.792427
62 1 0.121308 0.675801 0.88431
311 2 0.293742 0.733306 0.864556
149 1 0.160142 0.505253 0.851427
286 1 0.315715 0.513965 0.790162
191 1 0.24975 0.717572 0.979304
215 1 0.141254 0.912609 0.131432
9 1 0.25143 0.803581 0.12537
322 2 0.205258 0.839705 0.0196009
167 1 0.105551 0.771453 0.0185174
199 1 0.11497 0.769527 0.195196
23 1 0.307315 0.936539 0.049981
172 1 0.00702706 0.927932 0.21985
161 1 0.080338 0.834298 0.489646
100 1 0.0708587 0.845209 0.346266
59 1 0.219295 0.906223 0.416513
343 2 0.316833 0.821547 0.38005
289 2 0.0986645 0.97262 0.350908
193 1 0.1973 0.920849 0.261223
52 1 0.224286 0.77244 0.320673
114 1 0.305301 0.84006 0.660041
268 1 0.218894 0.928246 0.567068
87 1 0.300934 0.807429 0.509713
292 2 0.0459066 0.930267 0.574623
232 1 0.0824259 0.852011 0.709445
10 1 0.15919 0.765617 0.605326
221 1 0.200934 0.778031 0.74982
18 1 0.19583 0.826394 0.891899
81 1 0.0583453 0.997088 0.82781
330 2 0.0674047 0.761173 0.785086
4 1 0.238683 0.987674 0.891204
40 1 0.0924762 0.912309 0.964122
93 1 0.188263 0.93191 0.753643
105 1 0.0105467 0.845482 0.856985
351 2 0.00442699 0.839089 0.979836
284 1 0.332161 0.971333 0.751154
162 1 0.502758 0.0651141 0.136233
249 1 0.634122 0.131768 0.0306181
113 1 0.390533 0.120933 0.240741
181 1 0.438923 0.19737 0.0901999
301 2 0.363967 0.100814 0.110975
349 2 0.647379 0.0429045 0.160002
53 1 0.613372 0.200585 0.166013
128 1 0.425067 0.117616 0.391577
169 1 0.640937 0.203063 0.35036
108 1 0.532368 0.104166 0.284165
165 1 0.587238 0.0665395 0.445673
329 2 0.534457 0.174398 0.415597
356 2 0.479585 0.205584 0.25301
304 2 0.485098 0.00922208 0.428537
35 1 0.665638 0.19202 0.483267
303 2 0.362071 0.0997362 0.746462
275 1 0.565329 0.121073 0.604704
104 1 0.430575 0.163152 0.65774
259 1 0.496903 0.234624 0.519618
2 1 0.413406 0.0898345 0.53238
130 1 0.666345 0.117445 0.714809
328 2 0.552382 0.149335 0.738753
121 1 0.479359 0.0182584 0.656631
46 1 0.645226 0.246407 0.617476
233 1 0.452305 0.111443 0.962309
176 1 0.440826 0.217906 0.812415
210 1 0.600805 0.118511 0.884982
12 1 0.471355 0.0652681 0.812165
337 2 0.603831 0.257397 0.0506154
106 1 0.448198 0.346346 0.0288789
96 1 0.405086 0.302505 0.179872
157 1 0.594064 0.35608 0.136379
313 2 0.47713 0.407796 0.164966
226 1 0.649482 0.486178 0.214746
185 1 0.387281 0.431052 0.316379
8 1 0.456525 0.407302 0.459183
338 2 0.386498 0.302153 0.495936
177 1 0.532626 0.336795 0.267202
339 2 0.510844 0.440434 0.355424
36 1 0.429706 0.273683 0.353599
11 1 0.578625 0.325181 0.41782
92 1 0.597658 0.472328 0.463988
144 1 0.352405 0.39524 0.584197
166 1 0.458957 0.298532 0.654783
280 1 0.559143 0.364604 0.561469
201 1 0.433933 0.468714 0.712659
316 2 0.569021 0.3763 0.714305
60 1 0.378319 0.444388 0.908526
33 1 0.602334 0.36976 0.984135
197 1 0.514305 0.410015 0.852352
218 1 0.644144 0.477191 0.798035
314 2 0.424766 0.332412 0.90789
293 2 0.508858 0.481805 0.957628
276 1 0.588139 0.27049 0.782848
299 2 0.636351 0.372224 0.864394
134 1 0.360965 0.335149 0.782864
224 1 0.337616 0.253713 0.982921
34 1 0.511863 0.251103 0.9433
305 2 0.361998 0.672266 0.0308599
88 1 0.63763 0.633209 0.0360203
257 1 0.598481 0.640698 0.190956
198 1 0.443519 0.61734 0.134086
28 1 0.385731 0.498819 0.0549268
79 1 0.484469 0.515708 0.23101
107 1 0.549269 0.738445 0.0887782
263 1 0.542532 0.503303 0.0884517
196 1 0.352262 0.530549 0.480264
136 1 0.468791 0.552094 0.406784
141 1 0.594146 0.568936 0.331468
255 1 0.354071 0.569222 0.268791
295 2 0.498201 0.68269 0.390155
219 1 0.567536 0.619404 0.500246
212 1 0.471568 0.677497 0.273643
151 1 0.41332 0.686984 0.496226
153 1 0.50594 0.505836 0.581034
70 1 0.48842 0.705122 0.630416
333 2 0.619515 0.589358 0.616506
336 2 0.342685 0.730342 0.607364
122 1 0.631435 0.706243 0.657881
133 1 0.36264 0.609799 0.653103
68 1 0.551817 0.579592 0.72144
74 1 0.376696 0.741739 0.746513
326 2 0.364999 0.622156 0.783194
43 1 0.630694 0.524994 0.929492
317 2 0.538757 0.625601 0.867873
143 1 0.457696 0.546292 0.830869
6 1 0.480922 0.616167 0.98672
246 1 0.41825 0.716472 0.908741
187 1 0.576023 0.719846 0.931305
138 1 0.532243 0.722915 0.780392
27 1 0.482977 0.846421 0.0218412
287 1 0.585136 0.912693 0.105608
179 1 0.390938 0.775795 0.125978
61 1 0.426122 0.940753 0.147385
21 1 0.517372 0.83937 0.23511
315 2 0.335718 0.818344 0.0247103
320 2 0.433792 0.986632 0.0329495
45 1 0.337138 0.859217 0.245653
273 1 0.539973 0.907397 0.395714
189 1 0.44867 0.793403 0.373918
297 2 0.652397 0.838815 0.405069
17 1 0.374966 0.919261 0.433248
7 1 0.576892 0.781243 0.486206
163 1 0.574657 0.971128 0.251154
94 1 0.425844 0.982174 0.296505
158 1 0.593409 0.7528 0.333666
77 1 0.590912 0.852774 0.631755
252 1 0.522183 0.954276 0.531715
248 1 0.465953 0.867545 0.708919
156 1 0.444566 0.823979 0.549206
148 1 0.365759 0.954413 0.59351
102 1 0.643179 0.991451 0.637909
65 1 0.65007 0.845574 0.783717
222 1 0.341617 0.856683 0.838206
5 1 0.399057 0.966521 0.91678
194 1 0.492012 0.867233 0.85599
57 1 0.540716 0.986618 0.957059
41 1 0.594123 0.989677 0.781785
140 1 0.640654 0.867492 0.948457
318 2 0.65408 0.983459 0.893305
15 1 0.764862 0.214277 0.2356
256 1 0.951643 0.123789 0.0328925
155 1 0.924435 0.0580046 0.170032
13 1 0.770942 0.0996552 0.111806
270 1 0.874306 0.210903 0.134055
279 1 0.677825 0.079994 0.266653
170 1 0.831296 0.0357016 0.305099
171 1 0.731232 0.081989 0.417847
150 1 0.903533 0.173019 0.296364
347 2 0.923801 0.194515 0.500461
240 1 0.875459 0.0825216 0.434597
159 1 0.790953 0.243587 0.389489
30 1 0.977981 0.050782 0.312703
206 1 0.93566 0.154169 0.629879
55 1 0.856173 0.095769 0.74381
225 1 0.942388 0.00587239 0.542852
145 1 0.792994 0.0841536 0.588714
281 1 0.783847 0.213898 0.689253
20 1 0.808123 0.24445 0.542066
63 1 0.903151 0.0940535 0.887611
44 1 0.921801 0.229155 0.764182
110 1 0.761737 0.09645 0.875372
19 1 0.797229 0.184193 0.994512
319 2 0.808617 0.0650357 0.996757
350 2 0.706102 0.182042 0.814284
352 2 0.857618 0.00366365 0.828286
294 2 0.908022 0.214752 0.939531
101 1 0.989799 0.438835 0.0548735
178 1 0.968912 0.468708 0.21311
64 1 0.87332 0.31858 0.0256002
75 1 0.784275 0.378876 0.201072
115 1 0.948345 0.307245 0.24393
340 2 0.905972 0.369849 0.143873
80 1 0.72603 0.439349 0.0836728
283 1 0.733348 0.266891 0.0871775
119 1 0.839785 0.38156 0.341893
204 1 0.706408 0.478857 0.358547
214 1 0.710245 0.349583 0.481367
242 1 0.872489 0.396085 0.488478
296 2 0.839616 0.482102 0.276791
76 1 0.967205 0.280057 0.399267
50 1 0.685845 0.338156 0.292101
229 1 0.991085 0.419058 0.353533
359 2 0.972418 0.440989 0.677567
261 1 0.907647 0.32869 0.622157
22 1 0.850394 0.469987 0.647441
308 2 0.79168 0.373819 0.591833
245 1 0.758327 0.491187 0.513996
200 1 0.68008 0.438146 0.646244
24 1 0.885736 0.382712 0.758584
188 1 0.914857 0.435091 0.890471
142 1 0.676664 0.250173 0.921064
29 1 0.743746 0.39029 0.941375
241 1 0.83366 0.286576 0.875985
83 1 0.73908 0.356305 0.768261
358 2 0.952512 0.300283 0.863821
309 2 0.851346 0.449562 0.993941
302 2 0.709588 0.555974 0.135449
67 1 0.851579 0.523841 0.122916
211 1 0.944507 0.59631 0.0237784
251 1 0.770004 0.67477 0.126621
321 2 0.68984 0.713965 0.236324
277 1 0.912071 0.726025 0.101316
152 1 0.88989 0.61345 0.237901
38 1 0.745558 0.604675 0.259223
291 2 0.818677 0.655179 0.352518
173 1 0.703884 0.643368 0.401232
324 2 0.964846 0.676086 0.339009
183 1 0.864349 0.536249 0.387577
213 1 0.863344 0.691819 0.478338
49 1 0.735597 0.651203 0.562416
26 1 0.899283 0.560918 0.532316
205 1 0.865751 0.674689 0.634177
223 1 0.726191 0.562745 0.691568
290 2 0.704827 0.698846 0.949965
195 1 0.823103 0.681499 0.801893
39 1 0.775874 0.538206 0.986323
73 1 0.681784 0.64298 0.826237
360 2 0.881738 0.589224 0.894341
234 1 0.918443 0.53835 0.782641
288 1 0.976689 0.679275 0.807204
228 1 0.820798 0.684531 0.985644
186 1 0.987193 0.713292 0.950116
192 1 0.777682 0.519109 0.833611
72 1 0.715177 0.783427 0.0365766
98 1 0.856155 0.965088 0.0602253
129 1 0.824723 0.839396 0.147739
344 2 0.719051 0.885157 0.100993
56 1 0.764915 0.972829 0.190862
239 1 0.686292 0.846316 0.228877
125 1 0.990953 0.853536 0.0934903
203 1 0.971192 0.758179 0.240853
54 1 0.676046 0.998263 0.0305381
146 1 0.983483 0.942931 0.418977
16 1 0.82122 0.922755 0.468974
190 1 0.868148 0.889257 0.294939
99 1 0.701015 0.943742 0.352049
168 1 0.767706 0.782971 0.398391
182 1 0.940794 0.787047 0.392002
84 1 0.820787 0.750842 0.258437
272 1 0.936401 0.814775 0.690393
227 1 0.941437 0.851075 0.53957
269 1 0.836358 0.935412 0.631995
341 2 0.718717 0.896038 0.645965
282 1 0.790824 0.801389 0.560119
112 1 0.968031 0.978768 0.696073
209 1 0.771666 0.775126 0.716018
14 1 0.670455 0.914412 0.506435
312 2 0.671807 0.770501 0.556072
89 1 0.949511 0.946387 0.943495
235 1 0.786273 0.952243 0.907161
135 1 0.860033 0.827022 0.990766
174 1 0.751409 0.787338 0.876091
120 1 0.858683 0.882554 0.804566
298 2 0.895298 0.774159 0.860628
124 1 0.747508 0.983636 0.765341
ITEM: TIMESTEP
20000
ITEM: NUMBER OF ATOMS
360
ITEM: BOX BOUNDS pp pp pp
0.0000000000000000e+00 6.6943295008216896e+00
0.0000000000000000e+00 6.6943295008216896e+00
0.0000000000000000e+00 6.6943295008216896e+00
ITEM: ATOMS id type xs ys zs
113 1 0.247194 0.197677 0.11155
3 1 0.135727 0.122254 0.053119
325 2 0.121352 0.168294 0.165786
97 1 0.286635 0.0472697 0.047123
193 1 0.200294 0.0520457 0.188591
260 1 0.0352113 0.221416 0.0234426
301 2 0.285938 0.128949 0.230643
82 1 0.0283149 0.243889 0.21503
146 1 0.173146 0.0235435 0.360066
264 1 0.0734685 0.128682 0.443436
159 1 0.0148107 0.246894 0.381809
71 1 0.287543 0.133494 0.391049
115 1 0.118962 0.136109 0.293719
137 1 0.175794 0.222613 0.425824
267 1 0.204071 0.243178 0.255052
347 2 0.141911 0.00963292 0.472366
58 1 0.0157908 0.0522496 0.674674
243 1 0.192286 0.11728 0.7038
346 2 0.0823541 0.13218 0.581534
247 1 0.306803 0.0351534 0.630933
123 1 0.31749 0.183307 0.628989
103 1 0.077173 0.223808 0.694072
66 1 0.167034 0.237291 0.575668
100 1 0.23336 0.113207 0.525351
161 1 0.0236913 0.011556 0.528986
307 2 0.299397 0.233549 0.504118
131 1 0.299715 0.163949 0.95226
258 1 0.0415321 0.108864 0.816096
176 1 0.333378 0.152795 0.774691
40 1 0.029416 0.0439025 0.983646
332 2 0.152354 0.184298 0.793176
208 1 0.16906 0.114274 0.896177
31 1 0.282167 0.0156446 0.772577
345 2 0.105397 0.449803 0.122668
79 1 0.228658 0.426447 0.0662773
342 2 0.284135 0.344169 0.132321
244 1 0.151144 0.318346 0.126688
25 1 0.062581 0.411996 0.233985
141 1 0.331502 0.486226 0.1866
202 1 0.226086 0.385848 0.23916
217 1 0.0631564 0.375517 0.0227362
237 1 0.32695 0.322958 0.0192643
306 2 0.023997 0.408311 0.357857
196 1 0.277178 0.43141 0.380984
76 1 0.136469 0.345719 0.364801
118 1 0.317903 0.278476 0.383604
86 1 0.111429 0.459664 0.493615
324 2 0.0970436 0.3 0.473919
354 2 0.27913 0.47627 0.541583
175 1 0.0760202 0.356347 0.604372
266 1 0.256164 0.397922 0.644521
236 1 0.231421 0.357038 0.50223
359 2 0.226441 0.280454 0.695402
117 1 0.0356291 0.482309 0.739258
310 2 0.0499878 0.382878 0.84948
274 1 0.241933 0.256636 0.844058
42 1 0.285429 0.401034 0.801462
60 1 0.308326 0.488282 0.942644
28 1 0.165055 0.411221 0.906433
184 1 0.0707316 0.25138 0.880652
230 1 0.184179 0.281467 0.987521
90 1 0.1338 0.346095 0.74194
85 1 0.181082 0.535862 0.18584
262 1 0.053639 0.704815 0.0827636
198 1 0.32568 0.652369 0.208172
78 1 0.190857 0.682482 0.117272
220 1 0.136186 0.566055 0.0452231
179 1 0.308812 0.604636 0.0583013
91 1 0.0211566 0.549303 0.149727
47 1 0.2257 0.568605 0.476984
180 1 0.195882 0.739655 0.267692
48 1 0.134569 0.659369 0.397137
255 1 0.286185 0.595487 0.340179
355 2 0.0403926 0.563308 0.392693
139 1 0.0897335 0.621272 0.254977
229 1 0.134309 0.506428 0.346653
326 2 0.263397 0.624526 0.72856
154 1 0.174245 0.701297 0.531183
286 1 0.156362 0.673813 0.678235
132 1 0.32143 0.579679 0.618789
37 1 0.0341875 0.729618 0.580186
32 1 0.138094 0.523913 0.627393
254 1 0.0532241 0.597597 0.530519
336 2 0.288371 0.705759 0.593472
207 1 0.00697324 0.61831 0.67858
250 1 0.0672675 0.516637 0.893668
231 1 0.200282 0.586384 0.91782
191 1 0.155514 0.711648 0.960814
164 1 0.188426 0.514298 0.765727
62 1 0.0928207 0.639665 0.834529
221 1 0.245303 0.714785 0.842533
357 2 0.0674876 0.633868 0.967316
222 1 0.300596 0.739064 0.980847
199 1 0.0837373 0.809723 0.181522
9 1 0.254477 0.81162 0.141845
215 1 0.182559 0.925943 0.0901729
253 1 0.314366 0.953405 0.160409
155 1 0.0716665 0.998642 0.224959
322 2 0.145088 0.795444 0.077366
4 1 0.311428 0.89826 0.0215784
125 1 0.00466331 0.912687 0.0918318
30 1 0.208388 0.911587 0.240853
348 2 0.289299 0.886426 0.359122
59 1 0.28352 0.981371 0.469933
182 1 0.0357395 0.982568 0.390001
116 1 0.152924 0.879242 0.387313
52 1 0.0404719 0.798227 0.325468
111 1 0.247017 0.770158 0.41141
331 2 0.0972288 0.757969 0.44835
114 1 0.198177 0.882177 0.70493
87 1 0.0992349 0.861469 0.535663
10 1 0.0565392 0.900675 0.680963
156 1 0.295792 0.777942 0.706765
252 1 0.247398 0.827756 0.562279
300 2 0.146376 0.786809 0.630544
268 1 0.167434 0.987801 0.596213
18 1 0.112748 0.846433 0.817626
284 1 0.276605 0.875298 0.825376
311 2 0.194881 0.830396 0.910402
167 1 0.0815746 0.852096 0.979898
353 2 0.0760438 0.975784 0.901943
81 1 0.185021 0.971085 0.940142
93 1 0.127979 0.988243 0.78051
186 1 0.0110313 0.749124 0.894223
349 2 0.63618 0.0365379 0.17399
126 1 0.396404 0.0920783 0.173574
329 2 0.53106 0.153166 0.230622
249 1 0.542606 0.0857697 0.0781311
181 1 0.404146 0.208185 0.0731627
108 1 0.535604 0.233103 0.128408
128 1 0.413765 0.170404 0.301503
36 1 0.595044 0.224192 0.315349
304 2 0.402466 0.0944836 0.394425
165 1 0.53296 0.122842 0.415234
279 1 0.650429 0.0854299 0.305482
51 1 0.40437 0.186585 0.475322
95 1 0.334687 0.00952065 0.29966
162 1 0.522645 0.0346796 0.261198
335 2 0.408876 0.104687 0.676946
328 2 0.559525 0.0724893 0.692097
275 1 0.593127 0.0320534 0.541412
46 1 0.641025 0.201652 0.610325
160 1 0.486807 0.115358 0.578031
144 1 0.496041 0.214537 0.692013
289 2 0.366553 0.0756714 0.523
233 1 0.50569 0.127696 0.939271
104 1 0.465668 0.090521 0.796405
210 1 0.632066 0.0271812 0.941646
142 1 0.635735 0.236218 0.922296
276 1 0.632281 0.121333 0.81186
109 1 0.353174 0.0266652 0.908585
34 1 0.515496 0.233269 0.834564
263 1 0.563652 0.433704 0.0825171
302 2 0.481794 0.475089 0.181771
127 1 0.350339 0.26525 0.215204
356 2 0.634868 0.294428 0.203549
96 1 0.425731 0.366702 0.129714
313 2 0.353726 0.453302 0.0611447
177 1 0.600488 0.413736 0.250506
35 1 0.646036 0.304115 0.436288
8 1 0.468373 0.296109 0.379419
185 1 0.389524 0.389706 0.280397
92 1 0.506849 0.456813 0.34846
338 2 0.476777 0.290367 0.257382
69 1 0.395665 0.369903 0.517127
314 2 0.559806 0.487665 0.754628
280 1 0.598444 0.342046 0.634456
166 1 0.373707 0.303285 0.702643
316 2 0.518693 0.322975 0.745409
201 1 0.466055 0.421901 0.644682
153 1 0.533131 0.440644 0.501001
259 1 0.531361 0.2596 0.528706
323 2 0.420211 0.256987 0.581693
157 1 0.493737 0.334102 0.991195
106 1 0.592396 0.375586 0.828722