ITEM: TIMESTEP
0
ITEM: NUMBER OF ATOMS
360
ITEM: BOX BOUNDS pp pp pp
0.0000000000000000e+00 6.6943295008216896e+00
0.0000000000000000e+00 6.6943295008216896e+00
0.0000000000000000e+00 6.6943295008216896e+00
ITEM: ATOMS id type xs ys zs
140 1 0.193591 0.0281425 0.0874776
14 1 0.0604548 0.0888736 0.172465
116 1 0.202182 0.171923 0.163583
70 1 0.131832 0.152096 0.00998358
241 1 0.0167397 0.234025 0.132931
152 1 0.247074 0.0493263 0.390291
34 1 0.126705 0.149671 0.459857
47 1 0.263741 0.213936 0.391473
100 1 0.155999 0.140517 0.308153
117 1 0.331166 0.108127 0.264938
351 2 0.0395286 0.191966 0.252287
198 1 0.0989491 0.00878757 0.36801
248 1 0.168993 0.186989 0.603829
171 1 0.123587 0.0135408 0.532782
192 1 0.0100703 0.135303 0.559763
286 1 0.180054 0.0678632 0.694273
65 1 0.284946 0.109714 0.541038
280 1 0.300602 0.230537 0.658843
273 1 0.267622 0.179625 0.8058
234 1 0.146073 0.0913885 0.867894
175 1 0.118585 0.226167 0.762594
154 1 0.276357 0.090771 0.956322
79 1 0.0117182 0.195887 0.876175
71 1 0.0262551 0.0241707 0.917246
38 1 0.272962 0.247887 0.96136
73 1 0.243297 0.405595 0.150682
250 1 0.127941 0.29395 0.235236
272 1 0.0578373 0.391919 0.142561
28 1 0.166226 0.299973 0.0643366
132 1 0.154035 0.459671 0.0240182
84 1 0.00661149 0.311836 0.00179603
246 1 0.321443 0.283696 0.117502
262 1 0.289822 0.479252 0.31602
210 1 0.175261 0.358854 0.378335
186 1 0.145446 0.453507 0.260698
170 1 0.0164857 0.393812 0.427707
102 1 0.30389 0.305512 0.264469
200 1 0.326173 0.360926 0.423249
326 2 0.146062 0.423844 0.490789
165 1 0.066046 0.254692 0.363726
17 1 0.0860736 0.414483 0.600777
257 1 0.195754 0.464299 0.719359
54 1 0.257841 0.371831 0.578877
317 2 0.168356 0.318666 0.670967
143 1 0.0238583 0.258614 0.642192
247 1 0.127217 0.295674 0.516389
301 2 0.258571 0.252215 0.536862
274 1 0.0648263 0.378247 0.762938
342 2 0.249567 0.385017 0.995781
5 1 0.13352 0.311885 0.899212
10 1 0.213855 0.444111 0.87726
127 1 0.0407622 0.436827 0.926442
325 2 0.304411 0.434417 0.778028
98 1 0.24075 0.32475 0.773959
21 1 0.288233 0.531733 0.0883009
107 1 0.0486618 0.553103 0.17052
211 1 0.237013 0.589045 0.224324
331 2 0.176973 0.509932 0.150135
83 1 0.182551 0.635627 0.0831338
179 1 0.0820583 0.72291 0.152668
267 1 0.0942122 0.640034 0.2941
242 1 0.259262 0.631406 0.366231
126 1 0.153755 0.516386 0.393563
359 2 0.100403 0.62203 0.434759
66 1 0.296706 0.514122 0.473796
221 1 0.00311069 0.507774 0.314401
115 1 0.0854841 0.748661 0.405052
206 1 0.202772 0.739737 0.251333
147 1 0.187978 0.521566 0.574158
279 1 0.0713481 0.659793 0.573157
25 1 0.050201 0.548486 0.670674
233 1 0.219342 0.63253 0.663985
148 1 0.0294495 0.526253 0.502495
11 1 0.206046 0.677094 0.502411
202 1 0.325253 0.50217 0.640915
162 1 0.102582 0.703522 0.741915
20 1 0.109987 0.565524 0.825008
133 1 0.281509 0.586286 0.798383
292 2 0.016541 0.720068 0.868012
188 1 0.104277 0.689479 0.952114
298 2 0.195564 0.673783 0.852359
321 2 0.112227 0.568132 0.958836
153 1 0.237888 0.582476 0.958074
52 1 0.25527 0.746658 0.978157
266 1 0.288502 0.736789 0.796507
254 1 0.152405 0.861981 0.156796
106 1 0.267118 0.878875 0.0544366
13 1 0.120117 0.815455 0.0280849
119 1 0.294689 0.844688 0.21363
309 2 0.213241 0.761808 0.121267
245 1 0.0388257 0.950011 0.211888
208 1 0.0531223 0.974503 0.0603298
232 1 0.197496 0.994915 0.238341
74 1 0.0463935 0.895219 0.465253
306 2 0.210363 0.750941 0.377176
16 1 0.295899 0.881934 0.353078
56 1 0.207245 0.849488 0.474345
251 1 0.137982 0.869049 0.322711
78 1 0.325402 0.751103 0.434241
142 1 0.119237 0.814291 0.594852
90 1 0.254705 0.94396 0.611648
236 1 0.288286 0.7945 0.610879
305 2 0.326637 0.85977 0.508601
327 2 0.0762493 0.843903 0.726132
197 1 0.0296178 0.930014 0.636452
205 1 0.201635 0.844068 0.721387
347 2 0.00365186 0.765197 0.51633
228 1 0.144015 0.807853 0.858699
269 1 0.0875434 0.969715 0.776115
275 1 0.303015 0.857406 0.878955
356 2 0.0735191 0.885764 0.922321
53 1 0.18247 0.942221 0.949354
166 1 0.253795 0.991708 0.80595
324 2 0.310706 0.973754 0.917922
101 1 0.346756 0.124351 0.0782131
26 1 0.474454 0.079174 0.157387
297 2 0.5379 0.194701 0.190083
312 2 0.379879 0.191421 0.184965
97 1 0.631192 0.118497 0.224079
2 1 0.596264 0.149779 0.0728147
36 1 0.469435 0.230933 0.0674547
134 1 0.388471 0.113244 0.42609
44 1 0.533183 0.0640875 0.401135
213 1 0.454724 0.185911 0.29835
124 1 0.607782 0.201146 0.350369
315 2 0.515026 0.0719358 0.277874
354 2 0.399688 0.242104 0.405636
1 1 0.54006 0.197698 0.495054
60 1 0.573474 0.105129 0.676191
63 1 0.625439 0.058962 0.516383
253 1 0.458981 0.0790913 0.554514
121 1 0.338227 0.0609105 0.681761
291 2 0.397788 0.163846 0.618465
94 1 0.440198 0.172834 0.745978
141 1 0.524912 0.245343 0.6402
29 1 0.485754 0.00144592 0.736654
224 1 0.567459 0.0885134 0.829838
51 1 0.558632 0.211473 0.906324
144 1 0.405299 0.219701 0.881553
128 1 0.394025 0.0619101 0.85218
8 1 0.474106 0.10319 0.993947
353 2 0.566832 0.205143 0.760096
158 1 0.626868 0.302325 0.0367498
259 1 0.386937 0.416779 0.0370934
181 1 0.389416 0.443553 0.192675
182 1 0.521195 0.400707 0.10272
244 1 0.452623 0.302854 0.208329
230 1 0.630785 0.475145 0.00275704
15 1 0.618306 0.291686 0.181914
350 2 0.386604 0.387284 0.319834
24 1 0.610908 0.424902 0.418763
31 1 0.453569 0.466189 0.414533
96 1 0.527013 0.421526 0.258559
357 2 0.590647 0.291907 0.431324
138 1 0.478498 0.32696 0.379601
335 2 0.619562 0.33219 0.308389
91 1 0.542922 0.407172 0.674518
99 1 0.398489 0.355713 0.66127
264 1 0.501647 0.363988 0.527187
319 2 0.375488 0.407153 0.52712
255 1 0.652534 0.317678 0.549256
137 1 0.398914 0.251792 0.535749
268 1 0.562507 0.446857 0.84456
61 1 0.514163 0.348247 0.944457
237 1 0.487488 0.316992 0.779612
92 1 0.360041 0.369607 0.882497
263 1 0.647518 0.306135 0.804241
322 2 0.636628 0.373648 0.915339
18 1 0.42459 0.468147 0.766954
333 2 0.362589 0.271439 0.766348
303 2 0.391743 0.301858 0.981427
341 2 0.494709 0.472606 0.975082
93 1 0.436877 0.562835 0.0639595
130 1 0.485617 0.648852 0.193482
37 1 0.641866 0.686528 0.192734
334 2 0.360245 0.584708 0.186642
199 1 0.582171 0.622192 0.0551624
338 2 0.470904 0.686344 0.0571442
290 2 0.645281 0.740166 0.0773247
118 1 0.628736 0.514328 0.161964
299 2 0.497102 0.521422 0.181278
243 1 0.349438 0.709561 0.113067
33 1 0.573801 0.598564 0.454063
300 2 0.51451 0.710268 0.480854
195 1 0.505581 0.704675 0.34169
187 1 0.360257 0.728456 0.282588
85 1 0.414348 0.568384 0.304281
87 1 0.579417 0.560339 0.300457
95 1 0.420455 0.629302 0.461896
220 1 0.663021 0.687278 0.349263
278 1 0.655012 0.653464 0.676796
39 1 0.365458 0.656131 0.604301
252 1 0.518075 0.656996 0.596007
209 1 0.540107 0.563449 0.723845
302 2 0.424059 0.578097 0.688233
159 1 0.625406 0.500917 0.587291
201 1 0.465203 0.512584 0.571244
222 1 0.573348 0.706391 0.796716
168 1 0.533855 0.571333 0.915186
77 1 0.541431 0.744455 0.967887
88 1 0.440354 0.620108 0.810016
46 1 0.387948 0.670084 0.963217
336 2 0.658833 0.57296 0.799974
260 1 0.368528 0.517288 0.92366
318 2 0.382063 0.855043 0.125152
216 1 0.534336 0.78353 0.118093
123 1 0.652519 0.861882 0.0341218
316 2 0.623264 0.887483 0.166436
229 1 0.519083 0.942633 0.118633
283 1 0.451193 0.837894 0.229568
145 1 0.355612 0.983125 0.164878
19 1 0.388987 0.968421 0.021426
129 1 0.40166 0.803733 0.00504527
288 1 0.583194 0.805713 0.437034
149 1 0.448064 0.839011 0.376314
261 1 0.393034 0.964548 0.465308
340 2 0.544475 0.923557 0.376505
110 1 0.425108 0.981517 0.322469
103 1 0.603478 0.815999 0.279203
136 1 0.584629 0.96802 0.267777
22 1 0.445173 0.799918 0.52656
76 1 0.408197 0.92693 0.610438
194 1 0.585786 0.787669 0.60862
308 2 0.536814 0.994487 0.616987
223 1 0.532505 0.858717 0.74429
23 1 0.536459 0.932163 0.506206
4 1 0.428972 0.759169 0.691383
43 1 0.351608 0.900807 0.746037
276 1 0.593818 0.851911 0.87489
86 1 0.579685 0.991741 0.961705
191 1 0.448838 0.923519 0.877328
332 2 0.580167 0.96825 0.838949
235 1 0.435699 0.772739 0.852395
329 2 0.525911 0.882035 0.999084
214 1 0.782284 0.114104 0.0534638
249 1 0.783518 0.0484452 0.213304
285 1 0.985782 0.134367 0.0336512
41 1 0.909687 0.137023 0.17892
296 2 0.879073 0.233083 0.104996
344 2 0.904383 0.0090002 0.236572
323 2 0.692842 0.201152 0.145722
125 1 0.671648 0.00876925 0.095692
204 1 0.705116 0.177276 0.486519
172 1 0.846545 0.0840952 0.354269
231 1 0.760993 0.187228 0.273598
310 2 0.751633 0.0584475 0.476602
167 1 0.923096 0.226964 0.313004
183 1 0.69131 0.068393 0.369242
225 1 0.969634 0.0278434 0.454366
307 2 0.781395 0.181649 0.397545
226 1 0.988053 0.0878308 0.304208
330 2 0.984715 0.151197 0.415186
113 1 0.863549 0.135499 0.493225
189 1 0.918563 0.0387192 0.622125
104 1 0.76122 0.070269 0.602205
163 1 0.862542 0.189251 0.660829
135 1 0.69119 0.207704 0.662608
277 1 0.822227 0.0729283 0.74413
48 1 0.670695 0.00347163 0.725086
155 1 0.978856 0.103779 0.743932
81 1 0.87296 0.223698 0.96096
174 1 0.703413 0.149975 0.799057
184 1 0.877775 0.0717066 0.927309
218 1 0.872364 0.197943 0.814111
173 1 0.707981 0.0720746 0.92725
49 1 0.711303 0.224467 0.931774
345 2 0.97356 0.24473 0.755325
348 2 0.674699 0.385824 0.105799
6 1 0.910126 0.351614 0.115429
82 1 0.766923 0.292301 0.0960604
30 1 0.781139 0.450979 0.155711
311 2 0.924849 0.460967 0.209599
313 2 0.860569 0.460508 0.0453447
256 1 0.978742 0.491201 0.0510942
185 1 0.805193 0.325285 0.246957
111 1 0.721511 0.301254 0.382578
328 2 0.765127 0.42405 0.426246
196 1 0.843107 0.49086 0.323047
9 1 0.869673 0.35405 0.400647
35 1 0.694562 0.437771 0.289941
176 1 0.954187 0.257349 0.48308
122 1 0.979734 0.361309 0.28127
150 1 0.730328 0.358759 0.687678
177 1 0.920025 0.386565 0.555082
352 2 0.788367 0.252737 0.739099
281 1 0.80235 0.276496 0.528952
215 1 0.894965 0.347946 0.711906
139 1 0.769563 0.427054 0.558145
355 2 0.980623 0.426517 0.677083
45 1 0.963395 0.483347 0.789376
178 1 0.943768 0.336021 0.849036
69 1 0.789773 0.329769 0.841916
131 1 0.880063 0.459718 0.91934
169 1 0.712439 0.464986 0.850613
343 2 0.832683 0.446961 0.764242
239 1 0.751144 0.387426 0.978322
314 2 0.8821 0.346623 0.978392
320 2 0.77055 0.6921 0.148879
120 1 0.897735 0.729066 0.159201
207 1 0.755312 0.725221 0.0199957
271 1 0.88714 0.57404 0.146348
114 1 0.737888 0.585214 0.0858632
346 2 0.884329 0.718374 0.0327786
180 1 0.998795 0.65895 0.060342
161 1 0.74929 0.58859 0.24862
55 1 0.800075 0.650356 0.391319
238 1 0.921377 0.631655 0.279202
212 1 0.869821 0.53763 0.476895
157 1 0.708345 0.537844 0.426183
227 1 0.978828 0.650553 0.43596
284 1 0.762781 0.596848 0.5711
337 2 0.953845 0.613586 0.567582
258 1 0.827434 0.67446 0.686553
42 1 0.866865 0.700938 0.53396
193 1 0.744612 0.525809 0.708247
203 1 0.888797 0.521252 0.655848
282 1 0.978715 0.746025 0.655675
151 1 0.669682 0.705816 0.504256
270 1 0.870689 0.727815 0.87594
265 1 0.724426 0.707861 0.804099
304 2 0.753965 0.521715 0.960147
109 1 0.834295 0.584093 0.825389
287 1 0.970398 0.641038 0.756399
108 1 0.986545 0.589167 0.917456
57 1 0.851574 0.599212 0.988233
62 1 0.678214 0.607295 0.921741
360 2 0.679277 0.737663 0.921348
67 1 0.880897 0.870594 0.212937
50 1 0.722613 0.807146 0.159977
339 2 0.763102 0.932777 0.149293
146 1 0.846461 0.847144 0.0640522
240 1 0.995454 0.844275 0.112198
12 1 0.886072 0.998001 0.0997037
72 1 0.925056 0.800934 0.409655
3 1 0.94607 0.940056 0.333095
75 1 0.776812 0.817048 0.465137
358 2 0.832189 0.873732 0.32861
27 1 0.826052 0.957463 0.431549
294 2 0.708082 0.825219 0.354241
40 1 0.731494 0.915486 0.271348
164 1 0.996416 0.782841 0.276711
58 1 0.798717 0.76062 0.283186
112 1 0.677011 0.933487 0.424009
295 2 0.927114 0.901834 0.707146
105 1 0.802821 0.927262 0.669231
190 1 0.904706 0.886819 0.547336
89 1 0.745223 0.801153 0.609461
7 1 0.667011 0.926277 0.587306
289 2 0.785244 0.945058 0.542739
349 2 0.863689 0.787626 0.636967
80 1 0.691136 0.858776 0.746689
293 2 0.686809 0.935884 0.909214
64 1 0.924016 0.919656 0.957764
219 1 0.761063 0.832556 0.903367
160 1 0.779171 0.961256 0.828463
59 1 0.846422 0.820939 0.761542
156 1 0.97732 0.783742 0.968585
32 1 0.996574 0.850822 0.833541
217 1 0.928806 0.973815 0.80869
68 1 0.779217 0.957148 0.993849
ITEM: TIMESTEP
300000
ITEM: NUMBER OF ATOMS
360
ITEM: BOX BOUNDS pp pp pp
0.0000000000000000e+00 6.6943295008216896e+00
0.0000000000000000e+00 6.6943295008216896e+00
0.0000000000000000e+00 6.6943295008216896e+00
ITEM: ATOMS id type xs ys zs
140 1 0.203057 0.169206 0.0599197
311 2 0.0731665 0.20447 0.0472363
106 1 0.00614944 0.101163 0.0678586
342 2 0.31003 0.222663 0.087528
241 1 0.0675297 0.254898 0.180116
117 1 0.299666 0.137729 0.186065
56 1 0.137827 0.0616552 0.165924
145 1 0.287038 -0.00312478 0.100274
240 1 0.135718 0.0157005 0.00413721
339 2 0.0437524 0.174857 0.337806
14 1 0.0953864 0.0528735 0.383301
208 1 0.152166 0.16288 0.273564
165 1 0.141895 0.189507 0.434544
65 1 0.262757 0.0902742 0.423871
353 2 0.155905 0.0616586 0.48866
47 1 0.219859 0.0123745 0.296512
116 1 0.270314 0.25393 0.355135
210 1 0.278093 0.222263 0.509435
192 1 0.071097 0.0462838 0.678946
176 1 0.172515 0.134702 0.594121
166 1 0.225938 0.0530432 0.709993
273 1 0.265463 0.232553 0.664279
113 1 0.0298919 0.0965041 0.530248
248 1 0.133147 0.177096 0.733834
90 1 0.337866 0.0982156 0.595809
324 2 0.0612776 0.103185 0.94501
98 1 0.270554 0.161173 0.823761
232 1 0.156534 0.0700916 0.861357
175 1 0.125734 0.218667 0.927696
234 1 0.286606 0.0777754 0.961349
155 1 0.0158681 0.0995576 0.805503
345 2 0.0419776 0.227807 0.813678
43 1 0.300094 0.00477077 0.830416
38 1 0.28892 0.246417 0.956464
132 1 0.173844 0.429884 0.159184
70 1 0.139297 0.320451 0.0545621
127 1 0.0617027 0.444388 0.0557116
28 1 0.221277 0.286991 0.200907
36 1 0.30237 0.350522 0.0626971
122 1 0.0404529 0.406882 0.212123
73 1 0.333528 0.438426 0.197268
153 1 0.213182 0.492467 0.0145435
9 1 0.0145338 0.395582 0.486806
102 1 0.207526 0.39492 0.317515
250 1 0.077878 0.303627 0.33117
247 1 0.175638 0.338801 0.467578
126 1 0.0874908 0.471538 0.379715
350 2 0.317871 0.483526 0.322762
100 1 0.337 0.382734 0.483252
17 1 0.217971 0.373013 0.617919
66 1 0.0908948 0.266172 0.575564
348 2 0.0753128 0.388218 0.600243
355 2 0.147429 0.299003 0.68574
143 1 0.017797 0.317999 0.712044
147 1 0.144397 0.499343 0.568734
202 1 0.288033 0.424382 0.741093
257 1 0.13003 0.434514 0.729375
321 2 0.166023 0.391686 0.945188
84 1 0.0528423 0.340112 0.88064
5 1 0.280292 0.39848 0.893333
274 1 0.0948869 0.496733 0.904201
137 1 0.177532 0.302046 0.807552
83 1 0.132037 0.592655 0.117025
21 1 0.301847 0.594114 0.135392
206 1 0.206055 0.716668 0.191009
131 1 0.0140061 0.589623 0.0166035
346 2 0.218998 0.660568 0.062879
13 1 0.123444 0.741062 0.0501017
267 1 0.0902494 0.647292 0.267407
242 1 0.118036 0.622633 0.423062
78 1 0.251559 0.675988 0.324871
95 1 0.328019 0.644942 0.461954
262 1 0.241112 0.510446 0.435173
295 2 0.0792243 0.748054 0.491752
211 1 0.219527 0.538179 0.268574
313 2 0.0949907 0.504277 0.257464
298 2 0.224481 0.603535 0.523986
233 1 0.213431 0.577449 0.689979
279 1 0.142501 0.678788 0.575893
42 1 0.0354554 0.582516 0.661275
115 1 -0.00163104 0.556316 0.501002
39 1 0.323294 0.675242 0.612899
162 1 0.0689105 0.74781 0.719377
142 1 0.217132 0.751214 0.705745
200 1 0.318429 0.509442 0.590348
108 1 0.16906 0.618382 0.950451
236 1 0.103161 0.606955 0.796521
133 1 0.254329 0.545089 0.836398
338 2 0.206216 0.68112 0.828312
156 1 0.0703652 0.72386 0.898289
46 1 0.322304 0.616281 0.960125
228 1 0.0292145 0.93406 0.161327
119 1 0.169582 0.907147 0.126206
179 1 0.0744947 0.809395 0.21865
309 2 0.0182497 0.971031 0.0374172
335 2 0.168011 0.869833 0.00890451
243 1 0.28403 0.768192 0.0648415
356 2 0.027777 0.818718 0.101916
16 1 0.214356 0.828739 0.296469
254 1 0.0988808 0.90976 0.3452
110 1 0.214092 0.924504 0.435153
251 1 0.0845176 0.758594 0.364133
310 2 0.329946 0.894786 0.292882
171 1 0.0731198 0.957436 0.508638
11 1 0.210043 0.755646 0.46209
315 2 0.0781139 1.00014 0.262803
286 1 0.199009 0.988687 0.581075
32 1 0.157627 0.896936 0.714155
34 1 0.144776 0.824126 0.581637
235 1 0.303254 0.864949 0.55645
301 2 0.314464 0.995477 0.516529
59 1 0.00344001 0.911996 0.640665
205 1 0.338991 0.958759 0.67556
275 1 0.289789 0.900597 0.969482
188 1 0.285402 0.849138 0.808155
269 1 0.155748 0.910924 0.88944
327 2 0.0961368 0.968478 0.798753
292 2 0.143556 0.815403 0.80869
53 1 0.037594 0.856935 0.978559
217 1 0.0232399 0.857046 0.813722
20 1 0.220245 0.770073 0.927888
197 1 0.0195133 0.997996 0.906883
125 1 0.623986 0.0453549 0.0615985
297 2 0.543235 0.148144 0.0772724
26 1 0.461894 0.133029 0.181313
19 1 0.464018 0.017684 0.078336
2 1 0.622049 0.165818 0.193281
101 1 0.417645 0.164847 0.0123206
48 1 0.55045 -0.00440505 0.219986
173 1 0.665004 0.18543 0.0347601
312 2 0.503853 0.248133 0.248755
340 2 0.44766 0.0417506 0.316381
183 1 0.55045 0.127485 0.337683
76 1 0.428682 0.0988032 0.47095
44 1 0.384188 0.146724 0.314894
319 2 0.380842 0.213191 0.421284
141 1 0.570425 0.17738 0.522711
60 1 0.590979 0.152084 0.673779
329 2 0.468668 0.131063 0.595619
223 1 0.472281 0.0440732 0.69706
29 1 0.573505 0.03779 0.555274
134 1 0.412631 0.195521 0.693825
325 2 0.3458 0.0758917 0.726807
213 1 0.434475 0.24379 0.544307
8 1 0.555909 0.115361 0.927591
332 2 0.600111 0.118146 0.806783
94 1 0.493894 0.231416 0.815756
144 1 0.424415 0.105942 0.836407
86 1 0.663968 0.222765 0.87943
317 2 0.396385 0.207099 0.897787
246 1 0.379377 0.269233 0.18788
61 1 0.499465 0.405293 0.0600892
296 2 0.415834 0.295454 0.036264
15 1 0.514211 0.261376 0.118416
244 1 0.506002 0.38974 0.228611
118 1 0.617166 0.478086 0.145731
239 1 0.644555 0.402997 0.00781494
182 1 0.36623 0.479875 0.0206096
159 1 0.548109 0.457775 0.393577
354 2 0.464927 0.381169 0.448719
111 1 0.631623 0.285155 0.288739
138 1 0.379155 0.360896 0.327926
158 1 0.658977 0.441923 0.281852
303 2 0.44466 0.470419 0.299868
124 1 0.496069 0.269704 0.369478
264 1 0.575477 0.332017 0.497995
201 1 0.472333 0.447398 0.554484
150 1 0.627574 0.417337 0.607397
237 1 0.526998 0.302192 0.661974
99 1 0.374916 0.355193 0.636821
302 2 0.590155 0.391348 0.73055
357 2 0.637591 0.248061 0.5897
333 2 0.513762 0.478977 0.953294
259 1 0.428835 0.34696 0.921798
92 1 0.59893 0.360704 0.853931
54 1 0.352321 0.298699 0.793597
51 1 0.540901 0.263145 0.970278
10 1 0.466266 0.390591 0.781458
181 1 0.422106 0.707283 0.0949007
199 1 0.582447 0.628265 0.131534
93 1 0.450924 0.54178 0.152586
320 2 0.494289 0.661685 0.222364
187 1 0.479296 0.59807 0.000854421
306 2 0.35071 0.701707 0.206993
230 1 0.629616 0.547364 0.00465112
96 1 0.5461 0.546029 0.263112
195 1 0.430257 0.744196 0.295105
87 1 0.492862 0.637127 0.400731
151 1 0.660521 0.610149 0.381718
220 1 0.607743 0.707497 0.274218
85 1 0.390973 0.592924 0.289303
31 1 0.402023 0.502485 0.420819
22 1 0.442595 0.601796 0.546081
252 1 0.530848 0.525383 0.666404
18 1 0.393291 0.550696 0.730892
91 1 0.46946 0.683682 0.679849
288 1 0.573074 0.699259 0.527047
33 1 0.605431 0.543361 0.525485
352 2 0.669386 0.525522 0.685376
168 1 0.610015 0.621485 0.750596
88 1 0.472957 0.652365 0.833145
268 1 0.565538 0.504489 0.830734
341 2 0.593189 0.636249 0.916004
4 1 0.33268 0.70798 0.804986
260 1 0.415313 0.495467 0.880799
103 1 0.511725 0.801419 0.175234
216 1 0.418032 0.858165 0.0539951
293 2 0.467601 0.923499 0.159343
130 1 0.579359 0.902931 0.0724048
283 1 0.349314 0.833298 0.187371
37 1 0.544502 0.740846 0.0167235
207 1 0.673602 0.788369 0.132372
152 1 0.3731 1.00237 0.217227
280 1 0.360116 0.978999 0.393136
149 1 0.55573 0.814329 0.38486
330 2 0.446249 0.888252 0.456686
136 1 0.45824 0.899597 0.303223
160 1 0.530649 0.989216 0.401926
40 1 0.63318 0.876097 0.251416
261 1 0.43443 0.764229 0.500784
23 1 0.340052 0.822304 0.399381
194 1 0.378231 0.812326 0.678519
80 1 0.514178 0.894674 0.674106
266 1 0.439478 0.968119 0.550998
265 1 0.614928 0.760496 0.670327
7 1 0.562673 0.876555 0.524758
308 2 0.507099 0.782967 0.605598
336 2 0.639391 0.889306 0.621343
224 1 0.633911 1.00804 0.687052
229 1 0.520589 0.855746 0.911026
129 1 0.512487 0.783018 0.777839
191 1 0.632798 0.880862 0.780523
276 1 0.428797 0.917658 0.790257
318 2 0.537663 0.982496 0.988724
52 1 0.397284 0.765102 0.946715
128 1 0.649553 0.92927 0.937602
154 1 0.422247 0.977696 0.934204
334 2 0.645671 0.813631 0.987912
121 1 0.549681 0.989052 0.840263
222 1 0.634638 0.74428 0.871036
41 1 0.899848 0.189643 0.137986
323 2 0.788292 0.198111 0.0671393
97 1 0.756781 0.088555 0.131284
185 1 0.765642 0.221053 0.215319
249 1 0.893275 0.0162658 0.125856
198 1 1.00968 0.105981 0.222655
112 1 0.676764 0.0389969 0.285372
12 1 0.94395 0.0891089 0.39298
167 1 0.80391 0.166089 0.396997
170 1 0.922204 0.226729 0.289272
316 2 0.775002 0.0520341 0.501096
307 2 0.693489 0.164811 0.301647
245 1 0.834517 0.0886418 0.270849
253 1 0.673064 0.0865769 0.433228
186 1 0.992708 0.234093 0.455238
349 2 0.946995 0.0509687 0.641386
204 1 0.727219 0.148822 0.575801
104 1 0.81456 0.0570717 0.661921
135 1 0.833379 0.228563 0.690539
281 1 0.881487 0.157691 0.535389
163 1 0.981484 0.177216 0.660045
231 1 0.918825 -0.00795293 0.531752
218 1 0.85677 0.100566 0.833309
285 1 0.800187 0.201981 0.932422
214 1 0.708065 0.0769264 0.923255
79 1 0.956738 0.184989 0.94644
174 1 0.715663 0.138819 0.759133
215 1 0.917545 0.25364 0.822386
71 1 0.870695 0.0517151 0.981058
272 1 0.982544 0.305754 0.0610217
256 1 0.901469 0.454037 0.0912315
271 1 0.771134 0.429191 0.181181
81 1 0.818192 0.316389 0.0515732
82 1 0.674194 0.311581 0.126382
6 1 0.901555 0.344201 0.200939
157 1 0.76887 0.344407 0.312936
30 1 0.845217 0.310889 0.441758
196 1 0.942074 0.381909 0.334185
24 1 0.708686 0.416935 0.450123
212 1 0.87529 0.456532 0.493288
161 1 0.806889 0.494629 0.346035
1 1 0.685141 0.250601 0.437893
351 2 0.895347 0.465322 0.246048
255 1 0.755773 0.311013 0.567013
177 1 0.965885 0.449282 0.638118
227 1 0.916176 0.31087 0.58716
148 1 0.782146 0.453592 0.633652
203 1 0.854578 0.373228 0.745743
49 1 0.674422 0.281722 0.721224
314 2 0.698512 0.299114 0.978234
178 1 0.752189 0.358386 0.891121
45 1 0.913731 0.393403 0.931178
169 1 0.787857 0.460325 0.995983
139 1 0.989162 0.471728 0.796577
263 1 0.707559 0.439543 0.768134
69 1 0.839771 0.48821 0.842349
322 2 0.676915 0.468832 0.899098
337 2 0.768929 0.253634 0.811687
120 1 0.840145 0.701475 0.110153
299 2 0.707313 0.663806 0.142537
114 1 0.763954 0.564844 0.0972337
221 1 0.85538 0.584958 0.220055
328 2 0.897484 0.587072 0.0943276
107 1 0.992538 0.548185 0.181255
35 1 0.703164 0.58457 0.234323
180 1 0.987003 0.695796 0.1368
77 1 0.685419 0.686474 0.0137927
55 1 0.813329 0.644032 0.373419
74 1 0.962239 0.695195 0.420317
238 1 0.947506 0.551093 0.354568
347 2 0.872506 0.59762 0.469466
58 1 0.938317 0.703263 0.273122
294 2 0.696916 0.67145 0.493769
209 1 0.750744 0.555248 0.500179
190 1 0.766524 0.730488 0.249692
284 1 0.877242 0.574248 0.597319
258 1 0.915403 0.644198 0.726125
193 1 0.782117 0.573332 0.730454
282 1 0.984817 0.70554 0.585356
278 1 0.697396 0.639352 0.617317
331 2 0.811067 0.715822 0.65622
359 2 0.888709 0.507051 0.71815
72 1 0.826473 0.703203 0.521302
123 1 0.706534 0.592651 0.860111
304 2 0.839366 0.624637 0.834687
300 2 0.766773 0.713896 0.906286
25 1 0.957574 0.601996 0.868902
57 1 0.830831 0.63044 0.975828
343 2 0.900779 0.524604 0.949284
109 1 0.872124 0.752752 0.846245
62 1 0.749794 0.711352 0.758244
146 1 0.944459 0.738227 0.986199
67 1 0.909094 0.847966 0.20628
50 1 0.7647 0.943933 0.0699898
219 1 0.904212 0.875954 0.0647622
68 1 0.786313 0.811299 0.00383514
358 2 0.796249 0.825679 0.140221
290 2 0.676424 0.989133 0.168584
3 1 0.778041 0.936164 0.241033
289 2 0.772133 0.857144 0.438266
164 1 0.944716 0.971816 0.294227
27 1 0.851832 0.821156 0.345742
326 2 0.983453 0.829086 0.337583
305 2 0.960093 0.952479 0.416741
226 1 0.820327 0.991834 0.396535
225 1 0.986525 0.835968 0.46544
75 1 0.701297 0.757878 0.390819
172 1 0.672938 0.936814 0.401208
291 2 0.849515 0.938035 0.651223
64 1 0.758073 0.852738 0.68799
89 1 0.712606 0.802389 0.540018
287 1 0.897833 0.807543 0.695438
63 1 0.735279 0.951964 0.572986
105 1 0.862687 0.862261 0.561061
184 1 0.886277 0.912289 0.89689
360 2 0.851852 0.8761 0.775654
270 1 0.757142 0.838457 0.853096
277 1 0.765162 0.974887 0.792235
189 1 0.938652 0.977257 0.758462
344 2 0.769223 0.972751 0.920757
ITEM: TIMESTEP
600000
ITEM: NUMBER OF ATOMS
360
ITEM: BOX BOUNDS pp pp pp
0.0000000000000000e+00 6.6943295008216896e+00
0.0000000000000000e+00 6.6943295008216896e+00
0.0000000000000000e+00 6.6943295008216896e+00
ITEM: ATOMS id type xs ys zs
245 1 0.0102704 0.0744831 0.14094
79 1 0.141816 0.118443 0.0923917
44 1 0.293412 0.0560045 0.170061
117 1 0.282538 0.162004 0.0558071
70 1 0.0173858 0.216495 0.0409514
144 1 0.253235 0.0127303 0.0257244
116 1 0.203013 0.222832 0.175705
28 1 0.0535076 0.244578 0.189035
110 1 0.225789 0.128999 0.406921
65 1 0.0711143 0.169494 0.404154
312 2 0.258743 0.127027 0.274288
56 1 0.119582 0.0161393 0.393365
241 1 0.120837 0.100255 0.26178
286 1 0.111269 0.112196 0.535658
266 1 0.270213 0.103723 0.553466
134 1 0.177915 0.201942 0.649473
210 1 0.0640837 0.0201273 0.667503
310 2 0.174521 0.00831993 0.569096
90 1 0.316752 0.0142964 0.678825
213 1 0.20869 0.243555 0.502568
248 1 0.33217 0.228009 0.664
165 1 0.0335521 0.249364 0.522823
234 1 0.179245 0.146684 0.938363
113 1 0.0985916 0.15285 0.775882
155 1 0.259802 0.0695265 0.827522
166 1 0.239976 0.241624 0.7867
342 2 0.071254 0.0869744 0.991753
218 1 0.09822 0.0271836 0.874476
41 1 0.00075433 0.159702 0.909997
175 1 0.162175 0.283505 0.0344369
343 2 0.0419509 0.460565 0.128285
83 1 0.16013 0.382107 0.154696
296 2 0.22302 0.398184 0.033919
132 1 0.281259 0.486598 0.193338
101 1 0.295517 0.327765 0.104055
36 1 0.0877097 0.410831 0.00538925
319 2 0.217624 0.453789 0.298883
126 1 0.133056 0.355928 0.43643
237 1 0.276506 0.438775 0.407154
122 1 0.0973974 0.379386 0.289569
100 1 0.177969 0.250973 0.329562
354 2 0.310108 0.32326 0.445037
73 1 0.302554 0.350605 0.26878
321 2 0.0433853 0.255757 0.325128
204 1 0.184638 0.465387 0.68021
339 2 0.226956 0.324811 0.674613
17 1 0.128605 0.343559 0.600544
99 1 0.280792 0.370603 0.560358
69 1 0.0211525 0.449475 0.713261
279 1 0.0110079 0.437622 0.534412
273 1 0.104558 0.312307 0.742134
98 1 0.322174 0.487413 0.646201
200 1 0.162272 0.478268 0.529081
137 1 0.272793 0.339023 0.937089
359 2 0.00836939 0.345397 0.822772
139 1 0.13915 0.424679 0.845568
197 1 0.103655 0.270058 0.885872
257 1 0.286101 0.396833 0.781434
274 1 0.248952 0.499855 0.924324
108 1 0.183937 0.512906 0.0681638
313 2 0.209952 0.610021 0.145454
67 1 0.0178895 0.721008 0.0246359
107 1 0.0292692 0.58356 0.100435
180 1 0.0923806 0.710446 0.186434
206 1 0.162308 0.668561 0.0367429
102 1 0.127419 0.533059 0.224224
78 1 0.241314 0.748022 0.150087
211 1 0.325264 0.639576 0.214657
115 1 0.0756439 0.65055 0.352791
242 1 0.252368 0.569692 0.32681
11 1 0.188325 0.643497 0.451183
267 1 0.210648 0.710357 0.294435
262 1 0.11824 0.507601 0.375328
74 1 0.0517523 0.591013 0.499965
39 1 0.196413 0.613755 0.615765
142 1 0.0977241 0.687848 0.71176
225 1 0.000973666 0.578592 0.642145
95 1 0.305284 0.566834 0.509384
251 1 0.107476 0.730249 0.564003
42 1 0.236216 0.658255 0.90935
284 1 0.149067 0.568427 0.798863
131 1 0.0981868 0.552329 0.94265
25 1 0.0862006 0.68868 0.86855
66 1 0.298611 0.570315 0.785702
129 1 0.326077 0.724104 0.771309
338 2 0.205526 0.681375 0.783449
295 2 0.0273125 0.571404 0.810206
154 1 0.274784 0.9006 0.117637
324 2 0.0181125 0.92342 0.14246
13 1 0.105246 0.838 0.106358
311 2 0.257256 0.850282 0.239321
269 1 0.0578312 0.969017 0.0242165
53 1 0.138378 0.973823 0.149924
335 2 0.170377 0.904925 0.0107155
292 2 0.17329 0.905351 0.384746
280 1 0.263899 0.975374 0.451575
235 1 0.119603 0.786861 0.409637
119 1 0.22353 0.969043 0.280774
23 1 0.280663 0.835732 0.369545
16 1 0.101447 0.861379 0.252291
355 2 0.036885 0.837231 0.483975
80 1 0.256805 0.91147 0.592741
261 1 0.249069 0.778218 0.514967
59 1 0.0887976 0.860047 0.652172
4 1 0.215793 0.771294 0.6743
52 1 0.183902 0.980612 0.739264
176 1 0.121349 0.915153 0.507389
205 1 0.319422 0.865036 0.747232
20 1 0.194378 0.795994 0.829733
217 1 0.22049 0.932379 0.885505
316 2 0.0999898 0.911151 0.831102
156 1 0.0830959 0.835628 0.945995
240 1 0.245346 0.799804 0.991817
331 2 0.303574 0.833485 0.88083
287 1 0.0263673 0.808104 0.782223
140 1 0.451864 0.0579226 0.183115
2 1 0.582965 0.151374 0.129016
152 1 0.355035 0.192311 0.207364
307 2 0.503934 0.036179 0.0644112
26 1 0.439843 0.144114 0.0539062
318 2 0.382096 0.0197814 0.0584161
315 2 0.441537 0.13612 0.28496
246 1 0.346121 0.0689043 0.328888
308 2 0.606372 0.147513 0.414233
150 1 0.469985 0.127788 0.418869
124 1 0.560209 0.109949 0.281275
141 1 0.573747 0.0198401 0.437016
301 2 0.353675 0.11172 0.451268
138 1 0.356933 0.216523 0.359873
1 1 0.662661 0.24116 0.355221
244 1 0.510133 0.249475 0.308674
327 2 0.453461 0.048664 0.702166
76 1 0.379906 0.24147 0.522137
183 1 0.431595 0.114165 0.592868
277 1 0.557333 0.118765 0.696951
60 1 0.587207 0.157718 0.532593
92 1 0.592534 0.110031 0.972282
121 1 0.529329 0.0496108 0.841686
8 1 0.428808 0.155206 0.781444
297 2 0.475115 0.198995 0.936469
216 1 0.410584 0.0509771 0.935943
94 1 0.556822 0.227031 0.84333
38 1 0.337481 0.200042 0.911572
114 1 0.574038 0.393559 0.0994852
158 1 0.659864 0.271423 0.181974
111 1 0.433345 0.401463 0.162182
112 1 0.479402 0.263516 0.157605
153 1 0.34789 0.461512 0.0376466
61 1 0.425296 0.313238 0.00169379
239 1 0.578409 0.263204 0.00759727
159 1 0.429358 0.370404 0.365683
264 1 0.531429 0.277892 0.447746
252 1 0.644474 0.385861 0.400923
118 1 0.570308 0.387409 0.257491
93 1 0.525627 0.488815 0.396241
329 2 0.567319 0.36898 0.656246
10 1 0.417107 0.360152 0.67071
22 1 0.574768 0.432783 0.540481
201 1 0.418336 0.443995 0.506057
135 1 0.638123 0.47917 0.675516
29 1 0.511871 0.251358 0.619909
86 1 0.643776 0.277247 0.718833
291 2 0.504794 0.289145 0.737814
54 1 0.556889 0.385213 0.801277
51 1 0.411772 0.308362 0.831126
322 2 0.653482 0.299872 0.86118
333 2 0.515879 0.328846 0.90968
169 1 0.64941 0.388322 0.948735
5 1 0.497602 0.440354 0.949306
202 1 0.422711 0.47346 0.78412
348 2 0.379491 0.405611 0.90839
182 1 0.547141 0.522856 0.186844
21 1 0.457019 0.665116 0.153816
346 2 0.387364 0.533425 0.143516