ITEM: TIMESTEP
0
ITEM: NUMBER OF ATOMS
360
ITEM: BOX BOUNDS pp pp pp
0.0000000000000000e+00 6.6943295008216896e+00
0.0000000000000000e+00 6.6943295008216896e+00
0.0000000000000000e+00 6.6943295008216896e+00
ITEM: ATOMS id type xs ys zs
1 1 0 0 0
2 1 0.111572 0.111572 0
3 1 0.111572 0 0.111572
4 1 0 0.111572 0.111572
5 1 0.223144 0 0
6 1 0.223144 0.111572 0.111572
7 1 0 0.223144 0
8 1 0.111572 0.223144 0.111572
9 1 0.223144 0.223144 0
10 1 0 0 0.223144
11 1 0.111572 0.111572 0.223144
12 1 0.223144 0 0.223144
13 1 0 0.223144 0.223144
14 1 0.223144 0.223144 0.223144
15 1 0.111572 0 0.334716
16 1 0 0.111572 0.334716
17 1 0.223144 0.111572 0.334716
18 1 0.111572 0.223144 0.334716
19 1 0 0 0.446289
20 1 0.111572 0.111572 0.446289
21 1 0.223144 0 0.446289
22 1 0 0.223144 0.446289
23 1 0.223144 0.223144 0.446289
24 1 0.111572 0 0.557861
25 1 0 0.111572 0.557861
26 1 0.223144 0.111572 0.557861
27 1 0.111572 0.223144 0.557861
28 1 0 0 0.669433
29 1 0.111572 0.111572 0.669433
30 1 0.223144 0 0.669433
31 1 0 0.223144 0.669433
32 1 0.223144 0.223144 0.669433
33 1 0.111572 0 0.781005
34 1 0 0.111572 0.781005
35 1 0.223144 0.111572 0.781005
36 1 0.111572 0.223144 0.781005
37 1 0 0 0.892577
38 1 0.111572 0.111572 0.892577
39 1 0.223144 0 0.892577
40 1 0 0.223144 0.892577
41 1 0.223144 0.223144 0.892577
42 1 0.111572 0.334716 0
43 1 0 0.334716 0.111572
44 1 0.223144 0.334716 0.111572
45 1 0 0.446289 0
46 1 0.111572 0.446289 0.111572
47 1 0.223144 0.446289 0
48 1 0.111572 0.334716 0.223144
49 1 0 0.446289 0.223144
50 1 0.223144 0.446289 0.223144
51 1 0 0.334716 0.334716
52 1 0.223144 0.334716 0.334716
53 1 0.111572 0.446289 0.334716
54 1 0.111572 0.334716 0.446289
55 1 0 0.446289 0.446289
56 1 0.223144 0.446289 0.446289
57 1 0 0.334716 0.557861
58 1 0.223144 0.334716 0.557861
59 1 0.111572 0.446289 0.557861
60 1 0.111572 0.334716 0.669433
61 1 0 0.446289 0.669433
62 1 0.223144 0.446289 0.669433
63 1 0 0.334716 0.781005
64 1 0.223144 0.334716 0.781005
65 1 0.111572 0.446289 0.781005
66 1 0.111572 0.334716 0.892577
67 1 0 0.446289 0.892577
68 1 0.223144 0.446289 0.892577
69 1 0.111572 0.557861 0
70 1 0 0.557861 0.111572
71 1 0.223144 0.557861 0.111572
72 1 0 0.669433 0
73 1 0.111572 0.669433 0.111572
74 1 0.223144 0.669433 0
75 1 0.111572 0.557861 0.223144
76 1 0 0.669433 0.223144
77 1 0.223144 0.669433 0.223144
78 1 0 0.557861 0.334716
79 1 0.223144 0.557861 0.334716
80 1 0.111572 0.669433 0.334716
81 1 0.111572 0.557861 0.446289
82 1 0 0.669433 0.446289
83 1 0.223144 0.669433 0.446289
84 1 0 0.557861 0.557861
85 1 0.223144 0.557861 0.557861
86 1 0.111572 0.669433 0.557861
87 1 0.111572 0.557861 0.669433
88 1 0 0.669433 0.669433
89 1 0.223144 0.669433 0.669433
90 1 0 0.557861 0.781005
91 1 0.223144 0.557861 0.781005
92 1 0.111572 0.669433 0.781005
93 1 0.111572 0.557861 0.892577
94 1 0 0.669433 0.892577
95 1 0.223144 0.669433 0.892577
96 1 0.111572 0.781005 0
97 1 0 0.781005 0.111572
98 1 0.223144 0.781005 0.111572
99 1 0 0.892577 0
100 1 0.111572 0.892577 0.111572
101 1 0.223144 0.892577 0
102 1 0.111572 0.781005 0.223144
103 1 0 0.892577 0.223144
104 1 0.223144 0.892577 0.223144
105 1 0 0.781005 0.334716
106 1 0.223144 0.781005 0.334716
107 1 0.111572 0.892577 0.334716
108 1 0.111572 0.781005 0.446289
109 1 0 0.892577 0.446289
110 1 0.223144 0.892577 0.446289
111 1 0 0.781005 0.557861
112 1 0.223144 0.781005 0.557861
113 1 0.111572 0.892577 0.557861
114 1 0.111572 0.781005 0.669433
115 1 0 0.892577 0.669433
116 1 0.223144 0.892577 0.669433
117 1 0 0.781005 0.781005
118 1 0.223144 0.781005 0.781005
119 1 0.111572 0.892577 0.781005
120 1 0.111572 0.781005 0.892577
121 1 0 0.892577 0.892577
122 1 0.223144 0.892577 0.892577
123 1 0.334716 0.111572 0
124 1 0.334716 0 0.111572
125 1 0.446289 0 0
126 1 0.557861 0.111572 0
127 1 0.557861 0 0.111572
128 1 0.446289 0.111572 0.111572
129 1 0.334716 0.223144 0.111572
130 1 0.446289 0.223144 0
131 1 0.557861 0.223144 0.111572
132 1 0.334716 0.111572 0.223144
133 1 0.446289 0 0.223144
134 1 0.557861 0.111572 0.223144
135 1 0.446289 0.223144 0.223144
136 1 0.334716 0 0.334716
137 1 0.557861 0 0.334716
138 1 0.446289 0.111572 0.334716
139 1 0.334716 0.223144 0.334716
140 1 0.557861 0.223144 0.334716
141 1 0.334716 0.111572 0.446289
142 1 0.446289 0 0.446289
143 1 0.557861 0.111572 0.446289
144 1 0.446289 0.223144 0.446289
145 1 0.334716 0 0.557861
146 1 0.557861 0 0.557861
147 1 0.446289 0.111572 0.557861
148 1 0.334716 0.223144 0.557861
149 1 0.557861 0.223144 0.557861
150 1 0.334716 0.111572 0.669433
151 1 0.446289 0 0.669433
152 1 0.557861 0.111572 0.669433
153 1 0.446289 0.223144 0.669433
154 1 0.334716 0 0.781005
155 1 0.557861 0 0.781005
156 1 0.446289 0.111572 0.781005
157 1 0.334716 0.223144 0.781005
158 1 0.557861 0.223144 0.781005
159 1 0.334716 0.111572 0.892577
160 1 0.446289 0 0.892577
161 1 0.557861 0.111572 0.892577
162 1 0.446289 0.223144 0.892577
163 1 0.334716 0.334716 0
164 1 0.557861 0.334716 0
165 1 0.446289 0.334716 0.111572
166 1 0.334716 0.446289 0.111572
167 1 0.446289 0.446289 0
168 1 0.557861 0.446289 0.111572
169 1 0.334716 0.334716 0.223144
170 1 0.557861 0.334716 0.223144
171 1 0.446289 0.446289 0.223144
172 1 0.446289 0.334716 0.334716
173 1 0.334716 0.446289 0.334716
174 1 0.557861 0.446289 0.334716
175 1 0.334716 0.334716 0.446289
176 1 0.557861 0.334716 0.446289
177 1 0.446289 0.446289 0.446289
178 1 0.446289 0.334716 0.557861
179 1 0.334716 0.446289 0.557861
180 1 0.557861 0.446289 0.557861
181 1 0.334716 0.334716 0.669433
182 1 0.557861 0.334716 0.669433
183 1 0.446289 0.446289 0.669433
184 1 0.446289 0.334716 0.781005
185 1 0.334716 0.446289 0.781005
186 1 0.557861 0.446289 0.781005
187 1 0.334716 0.334716 0.892577
188 1 0.557861 0.334716 0.892577
189 1 0.446289 0.446289 0.892577
190 1 0.334716 0.557861 0
191 1 0.557861 0.557861 0
192 1 0.446289 0.557861 0.111572
193 1 0.334716 0.669433 0.111572
194 1 0.446289 0.669433 0
195 1 0.557861 0.669433 0.111572
196 1 0.334716 0.557861 0.223144
197 1 0.557861 0.557861 0.223144
198 1 0.446289 0.669433 0.223144
199 1 0.446289 0.557861 0.334716
200 1 0.334716 0.669433 0.334716
201 1 0.557861 0.669433 0.334716
202 1 0.334716 0.557861 0.446289
203 1 0.557861 0.557861 0.446289
204 1 0.446289 0.669433 0.446289
205 1 0.446289 0.557861 0.557861
206 1 0.334716 0.669433 0.557861
207 1 0.557861 0.669433 0.557861
208 1 0.334716 0.557861 0.669433
209 1 0.557861 0.557861 0.669433
210 1 0.446289 0.669433 0.669433
211 1 0.446289 0.557861 0.781005
212 1 0.334716 0.669433 0.781005
213 1 0.557861 0.669433 0.781005
214 1 0.334716 0.557861 0.892577
215 1 0.557861 0.557861 0.892577
216 1 0.446289 0.669433 0.892577
217 1 0.334716 0.781005 0
218 1 0.557861 0.781005 0
219 1 0.446289 0.781005 0.111572
220 1 0.334716 0.892577 0.111572
221 1 0.446289 0.892577 0
222 1 0.557861 0.892577 0.111572
223 1 0.334716 0.781005 0.223144
224 1 0.557861 0.781005 0.223144
225 1 0.446289 0.892577 0.223144
226 1 0.446289 0.781005 0.334716
227 1 0.334716 0.892577 0.334716
228 1 0.557861 0.892577 0.334716
229 1 0.334716 0.781005 0.446289
230 1 0.557861 0.781005 0.446289
231 1 0.446289 0.892577 0.446289
232 1 0.446289 0.781005 0.557861
233 1 0.334716 0.892577 0.557861
234 1 0.557861 0.892577 0.557861
235 1 0.334716 0.781005 0.669433
236 1 0.557861 0.781005 0.669433
237 1 0.446289 0.892577 0.669433
238 1 0.446289 0.781005 0.781005
239 1 0.334716 0.892577 0.781005
240 1 0.557861 0.892577 0.781005
241 1 0.334716 0.781005 0.892577
242 1 0.557861 0.781005 0.892577
243 1 0.446289 0.892577 0.892577
244 1 0.669433 0 0
245 1 0.781005 0.111572 0
246 1 0.781005 0 0.111572
247 1 0.669433 0.111572 0.111572
248 1 0.892577 0 0
249 1 0.892577 0.111572 0.111572
250 1 0.669433 0.223144 0
251 1 0.781005 0.223144 0.111572
252 1 0.892577 0.223144 0
253 1 0.669433 0 0.223144
254 1 0.781005 0.111572 0.223144
255 1 0.892577 0 0.223144
256 1 0.669433 0.223144 0.223144
257 1 0.892577 0.223144 0.223144
258 1 0.781005 0 0.334716
259 1 0.669433 0.111572 0.334716
260 1 0.892577 0.111572 0.334716
261 1 0.781005 0.223144 0.334716
262 1 0.669433 0 0.446289
263 1 0.781005 0.111572 0.446289
264 1 0.892577 0 0.446289
265 1 0.669433 0.223144 0.446289
266 1 0.892577 0.223144 0.446289
267 1 0.781005 0 0.557861
268 1 0.669433 0.111572 0.557861
269 1 0.892577 0.111572 0.557861
270 1 0.781005 0.223144 0.557861
271 1 0.669433 0 0.669433
272 1 0.781005 0.111572 0.669433
273 1 0.892577 0 0.669433
274 1 0.669433 0.223144 0.669433
275 1 0.892577 0.223144 0.669433
276 1 0.781005 0 0.781005
277 1 0.669433 0.111572 0.781005
278 1 0.892577 0.111572 0.781005
279 1 0.781005 0.223144 0.781005
280 1 0.669433 0 0.892577
281 1 0.781005 0.111572 0.892577
282 1 0.892577 0 0.892577
283 1 0.669433 0.223144 0.892577
284 1 0.892577 0.223144 0.892577
285 1 0.781005 0.334716 0
286 1 0.669433 0.334716 0.111572
287 1 0.892577 0.334716 0.111572
288 1 0.669433 0.446289 0
289 2 0.781005 0.446289 0.111572
290 2 0.892577 0.446289 0
291 2 0.781005 0.334716 0.223144
292 2 0.669433 0.446289 0.223144
293 2 0.892577 0.446289 0.223144
294 2 0.669433 0.334716 0.334716
295 2 0.892577 0.334716 0.334716
296 2 0.781005 0.446289 0.334716
297 2 0.781005 0.334716 0.446289
298 2 0.669433 0.446289 0.446289
299 2 0.892577 0.446289 0.446289
300 2 0.669433 0.334716 0.557861
301 2 0.892577 0.334716 0.557861
302 2 0.781005 0.446289 0.557861
303 2 0.781005 0.334716 0.669433
304 2 0.669433 0.446289 0.669433
305 2 0.892577 0.446289 0.669433
306 2 0.669433 0.334716 0.781005
307 2 0.892577 0.334716 0.781005
308 2 0.781005 0.446289 0.781005
309 2 0.781005 0.334716 0.892577
310 2 0.669433 0.446289 0.892577
311 2 0.892577 0.446289 0.892577
312 2 0.781005 0.557861 0
313 2 0.669433 0.557861 0.111572
314 2 0.892577 0.557861 0.111572
315 2 0.669433 0.669433 0
316 2 0.781005 0.669433 0.111572
317 2 0.892577 0.669433 0
318 2 0.781005 0.557861 0.223144
319 2 0.669433 0.669433 0.223144
320 2 0.892577 0.669433 0.223144
321 2 0.669433 0.557861 0.334716
322 2 0.892577 0.557861 0.334716
323 2 0.781005 0.669433 0.334716
324 2 0.781005 0.557861 0.446289
325 2 0.669433 0.669433 0.446289
326 2 0.892577 0.669433 0.446289
327 2 0.669433 0.557861 0.557861
328 2 0.892577 0.557861 0.557861
329 2 0.781005 0.669433 0.557861
330 2 0.781005 0.557861 0.669433
331 2 0.669433 0.669433 0.669433
332 2 0.892577 0.669433 0.669433
333 2 0.669433 0.557861 0.781005
334 2 0.892577 0.557861 0.781005
335 2 0.781005 0.669433 0.781005
336 2 0.781005 0.557861 0.892577
337 2 0.669433 0.669433 0.892577
338 2 0.892577 0.669433 0.892577
339 2 0.781005 0.781005 0
340 2 0.669433 0.781005 0.111572
341 2 0.892577 0.781005 0.111572
342 2 0.669433 0.892577 0
343 2 0.781005 0.892577 0.111572
344 2 0.892577 0.892577 0
345 2 0.781005 0.781005 0.223144
346 2 0.669433 0.892577 0.223144
347 2 0.892577 0.892577 0.223144
348 2 0.669433 0.781005 0.334716
349 2 0.892577 0.781005 0.334716
350 2 0.781005 0.892577 0.334716
351 2 0.781005 0.781005 0.446289
352 2 0.669433 0.892577 0.446289
353 2 0.892577 0.892577 0.446289
354 2 0.669433 0.781005 0.557861
355 2 0.892577 0.781005 0.557861
356 2 0.781005 0.892577 0.557861
357 2 0.781005 0.781005 0.669433
358 2 0.669433 0.892577 0.669433
359 2 0.892577 0.892577 0.669433
360 2 0.669433 0.781005 0.781005
ITEM: TIMESTEP
10000
ITEM: NUMBER OF ATOMS
360
ITEM: BOX BOUNDS pp pp pp
0.0000000000000000e+00 6.6943295008216896e+00
0.0000000000000000e+00 6.6943295008216896e+00
0.0000000000000000e+00 6.6943295008216896e+00
ITEM: ATOMS id type xs ys zs
293 2 0.0719703 0.231709 0.101795
155 1 0.0532076 0.146882 0.20617
30 1 0.150249 0.0333498 0.111341
97 1 0.201018 0.194339 0.0800684
271 1 0.00958745 0.066197 0.0772599
230 1 0.109374 0.135882 0.008577
21 1 0.282894 0.0881692 0.157021
237 1 0.307419 0.206623 0.23205
222 1 0.244831 0.00807331 0.00643619
2 1 0.178335 0.0424761 0.428605
71 1 0.252272 0.0437095 0.330063
325 2 0.00664342 0.0175737 0.364096
192 1 0.120143 0.109014 0.336968
232 1 0.311538 0.0143649 0.462594
137 1 0.117729 0.23906 0.262182
264 1 0.0372798 0.0460463 0.469394
298 2 0.0263029 0.0710333 0.656075
131 1 0.245591 0.0547497 0.669336
81 1 0.279383 0.191762 0.674337
114 1 0.204836 0.00639039 0.564462
206 1 0.12661 0.135067 0.680653
66 1 0.0234778 0.138746 0.577461
280 1 0.239979 0.196638 0.506078
208 1 0.0692714 0.0263592 0.94483
260 1 0.206657 0.119232 0.910783
270 1 0.225187 0.242564 0.942175
18 1 0.324619 0.148188 0.816113
258 1 0.120531 0.135416 0.825483
42 1 0.253972 0.0343086 0.800292
345 2 0.299051 0.0405268 0.910366
199 1 0.0777473 0.444181 0.212215
309 2 0.0533265 0.462725 0.106668
231 1 0.154063 0.34787 0.155383
188 1 0.121959 0.293775 0.0216992
180 1 0.261123 0.445671 0.0474855
32 1 0.273646 0.405798 0.180055
267 1 0.322006 0.261439 0.0590412
33 1 0.016789 0.296936 0.178686
118 1 0.241224 0.285337 0.400332
69 1 0.233108 0.413869 0.437736
82 1 0.100246 0.441187 0.347381
96 1 0.17312 0.354881 0.288175
350 2 0.120862 0.264228 0.40438
76 1 0.00617638 0.355519 0.491051
70 1 0.307829 0.443584 0.317867
1 1 0.134953 0.443485 0.685464
306 2 0.149706 0.427614 0.51513
274 1 0.194473 0.288524 0.732052
103 1 0.124879 0.310095 0.590795
117 1 0.231356 0.395055 0.588267
316 2 0.265966 0.448617 0.706975
176 1 0.301243 0.284911 0.83182
338 2 0.19006 0.308549 0.844712
294 2 0.0588561 0.415272 0.771017
58 1 0.0793448 0.29486 0.788661
104 1 0.153889 0.419872 0.819803
303 2 0.255497 0.384426 0.928047
286 1 0.331563 0.45511 0.82889
123 1 0.0451608 0.37295 0.965192
48 1 0.0732164 0.606437 0.17381
189 1 0.125451 0.541324 0.0373112
202 1 0.200504 0.506243 0.148899
305 2 0.270997 0.596868 0.112224
23 1 0.130954 0.728454 0.122545
196 1 0.22451 0.606651 0.216433
25 1 0.0403391 0.707451 0.0160701
285 1 0.0319434 0.737753 0.229464
308 2 0.198956 0.511492 0.290287
86 1 0.0265348 0.537968 0.286722
167 1 0.105617 0.656257 0.32364
307 2 0.124052 0.632117 0.430339
300 2 0.0706975 0.50822 0.453956
52 1 0.241403 0.62645 0.349777
321 2 0.327577 0.701244 0.397871
216 1 0.249468 0.566115 0.459942
61 1 0.28641 0.735356 0.259106
164 1 0.162844 0.54739 0.538348
288 1 0.134789 0.720822 0.677751
186 1 0.271678 0.618912 0.614936
248 1 0.236166 0.700563 0.506126
194 1 0.106897 0.685206 0.555704
149 1 0.0103465 0.528206 0.547935
354 2 0.0731478 0.579926 0.643878
246 1 0.308857 0.72275 0.73452
277 1 0.0748202 0.50012 0.907282
272 1 0.00421155 0.704203 0.851349
228 1 0.197737 0.621178 0.762793
91 1 0.238575 0.511947 0.920218
4 1 0.272545 0.676954 0.886315
342 2 0.111831 0.540545 0.795556
360 2 0.0850968 0.640503 0.926902
74 1 0.180771 0.64611 0.987619
326 2 0.325829 0.554646 0.840472
161 1 0.132221 0.709912 0.881307
17 1 0.13538 0.846763 0.079878
107 1 0.327157 0.873099 0.0834726
172 1 0.0530347 0.889482 0.19541
315 2 0.331785 0.759006 0.141938
225 1 0.145852 0.993979 0.235431
215 1 0.210825 0.868906 0.179519
59 1 0.323308 0.934845 0.232289
353 2 0.0804561 0.967235 0.0464178
126 1 0.210905 0.927761 0.352025
247 1 0.217994 0.801113 0.348696
182 1 0.0803123 0.8806 0.485691
357 2 0.0782246 0.800791 0.316286
100 1 0.0615366 0.920154 0.333376
147 1 0.3321 0.80122 0.42303
289 2 0.183777 0.785226 0.251711
151 1 0.114 0.766027 0.438283
3 1 0.261827 0.891021 0.470285
136 1 0.326329 0.880124 0.613
62 1 0.218661 0.818522 0.746483
40 1 0.0410838 0.95251 0.667727
105 1 0.179663 0.850529 0.601047
5 1 0.142857 0.890613 0.885239
284 1 0.289232 0.886841 0.872369
349 2 0.0474408 0.798837 0.763007
323 2 0.115545 0.990797 0.802777
287 1 0.23473 0.814831 0.982722
98 1 0.00232427 0.909858 0.990478
297 2 0.53184 0.126421 0.0477633
320 2 0.597316 0.0405426 0.0509985
113 1 0.661242 0.170647 0.151514
185 1 0.45876 0.18509 0.136385
99 1 0.491051 0.0361326 0.160453
224 1 0.362686 0.0872855 0.0310378
187 1 0.615945 0.0258152 0.17123
253 1 0.526037 0.146377 0.241817
181 1 0.519854 0.146113 0.382054
108 1 0.424295 0.18808 0.489724
10 1 0.369508 0.0892567 0.356212
45 1 0.439121 0.0136199 0.281461
128 1 0.457895 0.00608955 0.426221
36 1 0.349503 0.228772 0.355058
259 1 0.647803 0.101691 0.393174
13 1 0.558726 0.00228823 0.311103
200 1 0.566422 0.245607 0.483886
95 1 0.55137 0.220347 0.638603
51 1 0.415876 0.237394 0.655202
47 1 0.410512 0.040275 0.694325
346 2 0.465112 0.0805605 0.516695
11 1 0.59768 0.101874 0.550422
275 1 0.356327 0.125752 0.577044
282 1 0.49993 0.00463007 0.60405
94 1 0.421081 0.0123047 0.898801
34 1 0.443069 0.194912 0.98512
57 1 0.575684 0.102603 0.947521
142 1 0.609975 0.236528 0.792727
332 2 0.408564 0.144911 0.893134
127 1 0.478926 0.0877224 0.819253
273 1 0.605654 0.0991349 0.752387
244 1 0.384949 0.408161 0.0852725
335 2 0.581992 0.365796 0.167139
197 1 0.603859 0.261615 0.0802401
344 2 0.377975 0.276172 0.149322
263 1 0.58686 0.478297 0.0595914
38 1 0.507285 0.451759 0.167109
56 1 0.632278 0.284305 0.222278
157 1 0.539604 0.377603 0.42093
249 1 0.49682 0.304649 0.305095
328 2 0.446703 0.299271 0.48249
339 2 0.373026 0.322605 0.3034
53 1 0.626308 0.408701 0.310923
144 1 0.427912 0.419123 0.389641
317 2 0.397801 0.423375 0.265275
46 1 0.518547 0.406529 0.551793
8 1 0.382827 0.401479 0.647462
243 1 0.355741 0.336459 0.554451
68 1 0.560395 0.449776 0.659673
130 1 0.501025 0.301163 0.744141
15 1 0.63392 0.292382 0.922508
337 2 0.532271 0.280369 0.848661
148 1 0.414911 0.269493 0.884591
359 2 0.536928 0.488119 0.866068
299 2 0.449613 0.417005 0.883648
276 1 0.65013 0.420812 0.889395
133 1 0.382773 0.350678 0.753719
233 1 0.501354 0.361311 0.982194
78 1 0.462332 0.512883 0.0617146
152 1 0.575112 0.633232 0.0707351
9 1 0.364302 0.705937 0.0490143
158 1 0.532184 0.725859 0.19138
92 1 0.65256 0.606792 0.222695
79 1 0.506966 0.576955 0.180127
283 1 0.350951 0.525929 0.190772
203 1 0.665669 0.740204 0.0693375
116 1 0.362041 0.554252 0.385599
193 1 0.394661 0.626469 0.278612
111 1 0.529818 0.68227 0.309926
50 1 0.655292 0.655733 0.422305
257 1 0.530551 0.523019 0.313578
77 1 0.425684 0.713495 0.41633
333 2 0.404727 0.611065 0.466579
75 1 0.610558 0.557232 0.472335
221 1 0.395281 0.661276 0.583958
134 1 0.432632 0.504246 0.7024
355 2 0.53569 0.65423 0.517838
331 2 0.342384 0.530347 0.616199
173 1 0.579225 0.61089 0.679904
85 1 0.348516 0.603005 0.719976
341 2 0.49309 0.739619 0.601161
156 1 0.423007 0.521305 0.516202
223 1 0.51914 0.60156 0.826497
121 1 0.496866 0.586109 0.950445
143 1 0.622319 0.656792 0.94207
220 1 0.366064 0.589881 0.992265
27 1 0.378367 0.655215 0.832293
311 2 0.491821 0.726205 0.792097
201 1 0.661504 0.557919 0.770302
255 1 0.538619 0.906456 0.140603
132 1 0.441444 0.838084 0.237516
141 1 0.636587 0.901026 0.223288
72 1 0.46268 0.980846 0.0358278
135 1 0.65982 0.759869 0.236261
252 1 0.431553 0.870515 0.435419
348 2 0.366147 0.796091 0.310635
295 2 0.416592 0.907967 0.328152
14 1 0.531047 0.789007 0.448041
87 1 0.582692 0.980236 0.459264
212 1 0.609456 0.888707 0.371458
162 1 0.505959 0.927299 0.719195
269 1 0.581725 0.79271 0.678149
49 1 0.615396 0.769567 0.556367
93 1 0.48115 0.860954 0.567716
7 1 0.652462 0.894762 0.556205
327 2 0.408068 0.777682 0.51608
179 1 0.393818 0.870438 0.966439
60 1 0.578028 0.985706 0.842021
301 2 0.402262 0.917089 0.805395
65 1 0.479086 0.860672 0.853758
322 2 0.340977 0.817645 0.809962
122 1 0.58312 0.927357 0.977556
138 1 0.619395 0.780282 0.927934
88 1 0.599427 0.852792 0.796916
6 1 0.47376 0.758091 0.94623
240 1 0.859168 0.0451143 0.144948
129 1 0.745541 0.0925897 0.218253
250 1 0.909371 0.155175 0.0322345
256 1 0.860144 0.173671 0.141533
106 1 0.796 0.12668 0.338118
35 1 0.908384 0.12584 0.416481
340 2 0.934609 0.217157 0.268653
63 1 0.940573 0.111884 0.282216
16 1 0.832079 0.0231348 0.408242
330 2 0.81284 0.104001 0.468612
178 1 0.99745 0.237777 0.377782
210 1 0.884177 0.0994993 0.578392
166 1 0.669294 0.169877 0.642868
241 1 0.790381 0.188974 0.66653
171 1 0.89697 0.0608077 0.734934
319 2 0.74833 0.056418 0.690735
165 1 0.752608 0.0956221 0.552664
169 1 0.943018 0.24003 0.528621
314 2 0.86866 0.208909 0.608537
124 1 0.702948 0.237505 0.509908
55 1 0.981402 0.1595 0.708177
102 1 0.901255 0.0465457 0.859534
292 2 0.999713 0.127938 0.979721
175 1 0.870444 0.176723 0.787658
31 1 0.713858 0.114945 0.812639
184 1 0.86637 0.236866 0.919314
28 1 0.788598 0.116649 0.93768
83 1 0.735059 0.240758 0.844881
54 1 0.726031 0.0044601 0.984223
163 1 0.70664 0.198296 0.989053
160 1 0.991441 0.19274 0.853279
19 1 0.880829 0.0407827 0.995883
80 1 0.937682 0.299947 0.00959877
218 1 0.792083 0.30474 0.0169749
43 1 0.850964 0.291293 0.174734
262 1 0.770865 0.493988 0.179173
115 1 0.912726 0.418658 0.161672
29 1 0.694146 0.386334 0.142806
296 2 0.774264 0.25191 0.103623
302 2 0.708035 0.348638 0.23854
139 1 0.974876 0.346693 0.304162
226 1 0.908828 0.48182 0.268383
313 2 0.947975 0.394535 0.414938
64 1 0.877789 0.269526 0.412808
159 1 0.84259 0.449205 0.402698
195 1 0.757566 0.453436 0.296759
119 1 0.727315 0.326509 0.387197
343 2 0.831112 0.376904 0.27217
153 1 0.691198 0.450944 0.465904
177 1 0.788086 0.263893 0.28215
44 1 0.990976 0.422941 0.657422
347 2 0.781666 0.463771 0.662175
312 2 0.694766 0.468132 0.57841
358 2 0.825106 0.353373 0.56096
214 1 0.89887 0.422965 0.527753
20 1 0.80544 0.345028 0.657148
112 1 0.96467 0.287568 0.645916
110 1 0.682428 0.395528 0.718892
109 1 0.942357 0.364271 0.883195
281 1 0.791877 0.354048 0.898958
24 1 0.893287 0.496218 0.842113
213 1 0.761661 0.470402 0.802558
205 1 0.818609 0.463174 0.959568
242 1 0.870828 0.364364 0.767201
174 1 0.739261 0.600669 0.123611
211 1 0.932569 0.587562 0.195089
140 1 0.887288 0.670481 0.0691411
198 1 0.8678 0.723767 0.193997
39 1 0.922193 0.526872 0.0352177
154 1 0.950578 0.507791 0.417473
26 1 0.988466 0.714267 0.469277
229 1 0.671851 0.540652 0.356375
236 1 0.787253 0.645977 0.279768
278 1 0.955222 0.690248 0.329635
183 1 0.848823 0.598474 0.425601
329 2 0.813513 0.696166 0.573314
227 1 0.697115 0.720107 0.65698
254 1 0.8731 0.597117 0.56139
261 1 0.744485 0.574886 0.671088
207 1 0.865973 0.55002 0.724954
234 1 0.963942 0.623208 0.625973
266 1 0.712559 0.631999 0.531071
101 1 0.977217 0.60402 0.958083
239 1 0.673904 0.53726 0.947474
265 1 0.861991 0.640555 0.888371
73 1 0.720409 0.652702 0.856182
291 2 0.868924 0.70402 0.794202
90 1 0.990305 0.51187 0.763047
219 1 0.770367 0.638689 0.994314
84 1 0.767128 0.900676 0.146847
238 1 0.843755 0.810774 0.0328667
217 1 0.966821 0.947077 0.116631
67 1 0.708192 0.874718 0.0337407
351 2 0.782614 0.791925 0.109261
324 2 0.826876 0.931201 0.0530429
310 2 0.987412 0.808617 0.0393096
251 1 0.914997 0.857954 0.197894
290 2 0.79155 0.899276 0.287406
279 1 0.68974 0.991755 0.340052
204 1 0.843145 0.751909 0.438724
168 1 0.896467 0.887721 0.397798
146 1 0.754303 0.929772 0.443353
190 1 0.946196 0.967152 0.264182
125 1 0.981353 0.822065 0.329044
170 1 0.795543 0.786369 0.27615
318 2 0.697808 0.770555 0.338343
150 1 0.799262 0.912024 0.565114
41 1 0.816715 0.906064 0.73312
336 2 0.977462 0.863223 0.651394
304 2 0.728351 0.829086 0.647106
209 1 0.691882 0.92411 0.729335
145 1 0.907551 0.945869 0.614631
245 1 0.728896 0.797854 0.50238
268 1 0.973887 0.752294 0.647509
37 1 0.909917 0.845039 0.522026
89 1 0.873615 0.891122 0.882891
22 1 0.749777 0.787205 0.86205
12 1 0.714814 0.924529 0.882178
235 1 0.901718 0.804682 0.763273
120 1 0.989203 0.919151 0.808189
352 2 0.873504 0.970246 0.796246
356 2 0.81063 0.994673 0.888011
191 1 0.979594 0.814808 0.911199
334 2 0.842522 0.751785 0.916358
