#     Step Nr.          Time[fs]        Kin.[a.u.]          Temp[K]            Pot.[a.u.]        Cons Qty[a.u.]        UsedTime[s]
         0            0.000000         0.275037913       300.000000000     -1103.003860672     -1102.728822760         0.000000000
         1            0.500000         0.278257401       303.511685552     -1103.008409456     -1102.728902264       111.271566018
         2            1.000000         0.273014728       297.793193770     -1103.019786087     -1102.729172064        23.528415512
         3            1.500000         0.286538013       312.543834471     -1103.037601735     -1102.729565775        20.240852635
         4            2.000000         0.289217281       315.466269580     -1103.051450389     -1102.729791564        23.520433757
         5            2.500000         0.311532565       339.806860307     -1103.063918285     -1102.729913719        24.588440347
         6            3.000000         0.335223050       365.647463525     -1103.071399117     -1102.729933099       268.695494551
         7            3.500000         0.333042658       363.269181544     -1103.072879313     -1102.729894552        30.053233508
         8            4.000000         0.329434926       359.334016900     -1103.071455732     -1102.729660906        31.131820422
         9            4.500000         0.327525325       357.251102282     -1103.070311219     -1102.729469316        22.664537050
        10            5.000000         0.325707560       355.268359238     -1103.071765158     -1102.729342081        18.454677679
        11            5.500000         0.346069175       377.477968695     -1103.081702280     -1102.729393914        13.712515671
        12            6.000000         0.348522629       380.154094400     -1103.092946397     -1102.729488272        12.174968582
        13            6.500000         0.350073115       381.845301087     -1103.106861971     -1102.729607433         9.667584583
        14            7.000000         0.347383011       378.911046196     -1103.120538799     -1102.729895037         8.881796815
        15            7.500000         0.360076834       392.756944770     -1103.129533465     -1102.730281688         8.897892579
        16            8.000000         0.365054773       398.186674620     -1103.133426715     -1102.730754825         8.874978516
        17            8.500000         0.344607884       375.884052903     -1103.123390938     -1102.730918044         8.063138895
        18            9.000000         0.307044289       334.911233778     -1103.103750419     -1102.730132448         8.075017698
        19            9.500000         0.289295302       315.551371500     -1103.087866348     -1102.729285989         8.915283103
        20           10.000000         0.294275963       320.984070978     -1103.088956996     -1102.729715601        10.871123072
        21           10.500000         0.314796698       343.367241638     -1103.100854101     -1102.730462050         8.872597314
        22           11.000000         0.314977183       343.564107151     -1103.109813827     -1102.730665541         8.888941582
        23           11.500000         0.316888047       345.648399018     -1103.116174341     -1102.730704632         8.876870800
        24           12.000000         0.307085733       334.956439804     -1103.119693403     -1102.730709127         8.858486746
        25           12.500000         0.291956267       318.453843012     -1103.120419616     -1102.730685380         8.916035909
        26           13.000000         0.279880753       305.282370445     -1103.118966976     -1102.730642323         8.942905884
        27           13.500000         0.293803694       320.468939968     -1103.117346059     -1102.730587902         8.847033378
        28           14.000000         0.283605077       309.344709207     -1103.118453968     -1102.730569188         8.881927676
        29           14.500000         0.284835559       310.686868013     -1103.124155261     -1102.730638203         8.893851999
        30           15.000000         0.302942060       330.436691897     -1103.128525102     -1102.730677208        10.700589914
        31           15.500000         0.315095963       343.693667933     -1103.131540502     -1102.730683200         8.056274481
        32           16.000000         0.310186664       338.338806751     -1103.133374513     -1102.730680876         8.111200325
        33           16.500000         0.297779328       324.805397466     -1103.134175571     -1102.730682238         8.066256437
        34           17.000000         0.305806642       333.561260168     -1103.136334159     -1102.730741058         8.045382880
        35           17.500000         0.306495881       334.313052744     -1103.136739675     -1102.730795450         8.087031264
        36           18.000000         0.307779847       335.713550633     -1103.137946320     -1102.730909228         8.066548172
        37           18.500000         0.326366251       355.986832902     -1103.134777239     -1102.730898001         8.046258133
        38           19.000000         0.291570120       318.032649138     -1103.126505925     -1102.730686279         8.099726215
        39           19.500000         0.296362536       323.260018657     -1103.120980560     -1102.730413806         8.075596210
        40           20.000000         0.285576856       311.495444491     -1103.124656147     -1102.730425011        11.352115747
        41           20.500000         0.314384752       342.917908428     -1103.135539427     -1102.730758132         9.370427761
        42           21.000000         0.319302198       348.281654996     -1103.146575383     -1102.731101178         9.349329602
        43           21.500000         0.316896533       345.657654763     -1103.153309764     -1102.731218300         9.622775495
        44           22.000000         0.296655931       323.580041463     -1103.155295188     -1102.731156408         9.561662048
        45           22.500000         0.302424734       329.872414367     -1103.153652010     -1102.731021739         9.658565659
        46           23.000000         0.292406621       318.945069883     -1103.152567377     -1102.730930768         9.372065846
        47           23.500000         0.290550110       316.920064778     -1103.156316759     -1102.730960362         9.364855058
        48           24.000000         0.306326150       334.127918179     -1103.161982515     -1102.731037233         9.542607974
        49           24.500000         0.314483390       343.025498484     -1103.168106718     -1102.731083270        10.008613855
        50           25.000000         0.317229866       346.021241157     -1103.172706975     -1102.731126945        12.245412908
        51           25.500000         0.309596958       337.695580349     -1103.176710881     -1102.731132566         9.705951080
        52           26.000000         0.300412215       327.677241425     -1103.183569966     -1102.731244223         9.495728184
        53           26.500000         0.312636956       341.011483838     -1103.187032645     -1102.731331571         9.223789826
        54           27.000000         0.311627387       339.910288121     -1103.188992788     -1102.731348887         9.136761107
        55           27.500000         0.295908702       322.764995497     -1103.189333551     -1102.731282763         9.251110449
        56           28.000000         0.274750296       299.686279502     -1103.190055593     -1102.731212121         9.213958502
        57           28.500000         0.293674149       320.327636970     -1103.191114566     -1102.731184974         9.343808938
        58           29.000000         0.290628043       317.005070782     -1103.188567804     -1102.731052818         9.484153982
        59           29.500000         0.300087442       327.322992120     -1103.187941385     -1102.731020441         9.455407429
        60           30.000000         0.293568055       320.211914252     -1103.189152847     -1102.731054669        12.935484584
        61           30.500000         0.306783535       334.626813926     -1103.193982153     -1102.731180804         9.336000804
        62           31.000000         0.314622204       343.176910501     -1103.195603607     -1102.731195321         9.458196253
        63           31.500000         0.327945147       357.709027537     -1103.194981182     -1102.731153665         9.545861326
        64           32.000000         0.327437279       357.155065218     -1103.192215435     -1102.731074680         9.909222092
        65           32.500000         0.329212214       359.091091486     -1103.188478644     -1102.731019562         9.522276908
        66           33.000000         0.327330340       357.038420550     -1103.182351370     -1102.730889618         9.836054418
        67           33.500000         0.329011537       358.872201485     -1103.180276404     -1102.730833387         9.361014642
        68           34.000000         0.332628231       362.817141448     -1103.181097141     -1102.730872238         9.421760660
        69           34.500000         0.339250261       370.040178637     -1103.183736943     -1102.730913960         9.560339369
        70           35.000000         0.349395001       381.105642207     -1103.186228834     -1102.730918431        12.167558622
        71           35.500000         0.341745271       372.761632493     -1103.187873159     -1102.730932966         9.660127323
        72           36.000000         0.335076997       365.488154841     -1103.190833522     -1102.730987315         9.461522412
        73           36.500000         0.337432129       368.057035719     -1103.192352619     -1102.731010030         9.353524767
        74           37.000000         0.312579849       340.949193813     -1103.192188477     -1102.731009235         9.330902137
        75           37.500000         0.325529328       355.073951298     -1103.193213147     -1102.731031545         9.491313808
        76           38.000000         0.317972392       346.831157569     -1103.192729175     -1102.730979579         9.516297277
        77           38.500000         0.299797951       327.007228010     -1103.192345747     -1102.730907924         9.599227417
        78           39.000000         0.309542506       337.636185569     -1103.193323678     -1102.730871539         9.961675290
        79           39.500000         0.312457589       340.815838313     -1103.194625638     -1102.730854789         9.467310801
        80           40.000000         0.298801936       325.920816185     -1103.195924691     -1102.730854262        12.237559948
        81           40.500000         0.317927534       346.782227875     -1103.198555912     -1102.730936617         9.188758660
        82           41.000000         0.305186034       332.884326250     -1103.200610255     -1102.731016713         9.527899023
        83           41.500000         0.309594933       337.693371397     -1103.202200522     -1102.731104710         9.595078576
        84           42.000000         0.313333413       341.771151170     -1103.202744475     -1102.731173461         9.747690272
        85           42.500000         0.309398939       337.479589002     -1103.198471911     -1102.731132826         9.479539104
        86           43.000000         0.301844023       329.238998699     -1103.196404300     -1102.731100433         9.620858192
        87           43.500000         0.292893291       319.475910057     -1103.195405966     -1102.731118722         9.461941618
        88           44.000000         0.299427246       326.602878130     -1103.194908914     -1102.731146614         9.138481893
        89           44.500000         0.301793863       329.184285667     -1103.192911052     -1102.731155490         9.228025671
        90           45.000000         0.299557605       326.745067798     -1103.190072073     -1102.731138581        12.642324194
        91           45.500000         0.301406800       328.762093647     -1103.188036725     -1102.731095998         9.584095612
        92           46.000000         0.296142039       323.019509495     -1103.182587093     -1102.730942439         9.782152425
        93           46.500000         0.271652452       296.307279866     -1103.176808022     -1102.730759315         9.616329927
        94           47.000000         0.260233483       283.851939773     -1103.174742884     -1102.730689297         9.597904865
        95           47.500000         0.283630027       309.371924224     -1103.179618654     -1102.730795246         9.772414051
        96           48.000000         0.286938177       312.980317199     -1103.186077486     -1102.730921722         9.510860484
        97           48.500000         0.294107699       320.800535777     -1103.192400504     -1102.731030660         9.494088724
        98           49.000000         0.292102989       318.613880790     -1103.195981861     -1102.731097715         9.344161231
        99           49.500000         0.301612704       328.986685798     -1103.194892579     -1102.731052116         9.560701467
       100           50.000000         0.266815563       291.031400369     -1103.192461641     -1102.730977201        13.141238626
       101           50.500000         0.278116653       303.358162931     -1103.191149694     -1102.730884226         9.851504698
       102           51.000000         0.289315143       315.573013381     -1103.190585629     -1102.730822160        10.144231245
       103           51.500000         0.286038955       311.999483042     -1103.188628700     -1102.730756530         9.656985607
       104           52.000000         0.275605418       300.619011517     -1103.188851150     -1102.730800149         9.721233748
       105           52.500000         0.278643014       303.932295705     -1103.190514605     -1102.730884592         8.644368794
       106           53.000000         0.277414809       302.592620564     -1103.193954079     -1102.731000548         9.691631828
       107           53.500000         0.286060561       312.023049855     -1103.196915344     -1102.731095071         9.377027720
       108           54.000000         0.288127816       314.277926655     -1103.200335256     -1102.731201062         9.189211484
       109           54.500000         0.297821221       324.851092165     -1103.202650414     -1102.731272286         9.341498923
       110           55.000000         0.293341744       319.965063470     -1103.200067799     -1102.731212916        12.486358259
       111           55.500000         0.291632203       318.100366420     -1103.195149041     -1102.731090757         9.547552928
       112           56.000000         0.301668754       329.047822079     -1103.190138265     -1102.730969607         9.464791596
       113           56.500000         0.283736921       309.488519480     -1103.186256710     -1102.730883883         9.826279528
       114           57.000000         0.281758661       307.330714576     -1103.184734883     -1102.730855452         9.582173388
       115           57.500000         0.294378595       321.096018033     -1103.185566956     -1102.730861540         9.692912221
       116           58.000000         0.291991982       318.492798476     -1103.186755417     -1102.730888012         9.436261892
       117           58.500000         0.272307916       297.022232622     -1103.191584800     -1102.731021945         9.412269689
       118           59.000000         0.291397824       317.844716150     -1103.196773180     -1102.731136919         9.378962211
       119           59.500000         0.304653049       332.302968253     -1103.198026987     -1102.731187046         9.358688641
       120           60.000000         0.299700313       326.900728379     -1103.197363123     -1102.731141273        12.226264562
       121           60.500000         0.281209484       306.731695784     -1103.196428422     -1102.731084516         9.616569765
       122           61.000000         0.284700330       310.539365737     -1103.196133514     -1102.731056722         9.242894631
       123           61.500000         0.282680863       308.336614547     -1103.197358661     -1102.731074783         9.351099480
       124           62.000000         0.291319224       317.758981966     -1103.197206211     -1102.731059097         9.400096815
       125           62.500000         0.292088732       318.598329973     -1103.198332141     -1102.731043226         8.505139343
       126           63.000000         0.300056226       327.288943075     -1103.199245244     -1102.730959180         8.441831768
       127           63.500000         0.313787052       342.265961493     -1103.202952745     -1102.730955326         8.294823285
       128           64.000000         0.309090501       337.143157911     -1103.203800632     -1102.730964634         8.509687424
       129           64.500000         0.309874914       337.998763052     -1103.205719280     -1102.731008757         8.317819919
       130           65.000000         0.320849558       349.969451617     -1103.208001495     -1102.731095195        11.255356289
       131           65.500000         0.302370107       329.812829552     -1103.208282647     -1102.731115675         8.396626353
       132           66.000000         0.298427574       325.512477333     -1103.205557595     -1102.731079983         8.549865913
       133           66.500000         0.304498455       332.134343508     -1103.197250621     -1102.730907315         8.392886218
       134           67.000000         0.298120837       325.177901343     -1103.190054828     -1102.730778295         8.457144458
       135           67.500000         0.296841720       323.782692654     -1103.183951072     -1102.730656826         8.604745831
       136           68.000000         0.295010098       321.784835094     -1103.180277003     -1102.730586730         8.606780458
       137           68.500000         0.293503568       320.141575021     -1103.180626567     -1102.730600382         8.546307974
       138           69.000000         0.281976120       307.567910236     -1103.182783541     -1102.730682198         8.656344440
       139           69.500000         0.280453526       305.907127251     -1103.186307301     -1102.730806115         8.650461696
       140           70.000000         0.298552717       325.648978174     -1103.191612136     -1102.731013502        11.145081099
       141           70.500000         0.292723910       319.291156155     -1103.193431197     -1102.731154169         8.543030258
       142           71.000000         0.297324561       324.309356070     -1103.189091914     -1102.731173361         8.398197163
       143           71.500000         0.273194858       297.989672661     -1103.180427477     -1102.731065670         8.438640926
       144           72.000000         0.277463800       302.646057891     -1103.172099184     -1102.730863698         8.362631369
       145           72.500000         0.272010898       296.698257646     -1103.162582548     -1102.730602204         8.723847151
       146           73.000000         0.253975506       277.025996297     -1103.159073935     -1102.730541824         8.838349622
       147           73.500000         0.259458921       283.007079054     -1103.160079062     -1102.730650713         8.795010917
       148           74.000000         0.259824559       283.405901579     -1103.163870074     -1102.730811522         8.639113657
       149           74.500000         0.268260069       292.607007652     -1103.168532703     -1102.730964677         8.715359524
       150           75.000000         0.273896877       298.755405383     -1103.174182238     -1102.731101669        11.521397501
       151           75.500000         0.286762613       312.788819179     -1103.179422401     -1102.731183220         8.493143540
       152           76.000000         0.280809695       306.295621566     -1103.181441259     -1102.731115481         9.187139593
       153           76.500000         0.270109347       294.624123643     -1103.180857925     -1102.730961689         8.089445755
       154           77.000000         0.265659833       289.770777855     -1103.179134250     -1102.730815945         7.264464952
       155           77.500000         0.257308513       280.661502489     -1103.182182293     -1102.730825174         7.269584101
       156           78.000000         0.261222598       284.930825290     -1103.186443469     -1102.730870383         7.271503452
       157           78.500000         0.265985645       290.126160764     -1103.193891860     -1102.730980127         8.095195431
       158           79.000000         0.290241481       316.583424427     -1103.201174926     -1102.731113235         8.112558577
       159           79.500000         0.295941479       322.800746960     -1103.204248815     -1102.731139737         7.262920316
       160           80.000000         0.295025079       321.801175454     -1103.201999404     -1102.731083093        10.473711494
       161           80.500000         0.283164175       308.863792015     -1103.198568171     -1102.731012740         8.067683324
       162           81.000000         0.271764900       296.429932600     -1103.191771297     -1102.730868623         7.281455416
       163           81.500000         0.284519865       310.342522790     -1103.186231834     -1102.730757438         7.290261552
       164           82.000000         0.281041792       306.548783919     -1103.182554408     -1102.730692461         8.072712928
       165           82.500000         0.289729115       316.024556841     -1103.179554368     -1102.730666016         8.073897388
       166           83.000000         0.286459362       312.458045070     -1103.181070652     -1102.730722370         8.073791556
       167           83.500000         0.277848935       303.066147742     -1103.181288549     -1102.730720060         8.094519578
       168           84.000000         0.289246565       315.498211286     -1103.182597806     -1102.730757206         8.111402214
       169           84.500000         0.275838804       300.873579315     -1103.183051043     -1102.730772150         8.076057170
       170           85.000000         0.284535778       310.359879937     -1103.183934182     -1102.730793732        10.452930517
       171           85.500000         0.265545574       289.646149073     -1103.184211777     -1102.730789556         8.051269189
       172           86.000000         0.264473739       288.477035849     -1103.186667228     -1102.730815687         8.112308346
       173           86.500000         0.270630977       295.193096970     -1103.190554353     -1102.730871351         7.267321195
       174           87.000000         0.276342023       301.422470052     -1103.194159514     -1102.730885038         7.265898183
       175           87.500000         0.265494707       289.590664936     -1103.197256754     -1102.730884415         8.075699057
       176           88.000000         0.271077171       295.679786544     -1103.200590120     -1102.730866323         8.071315471
       177           88.500000         0.283803580       309.561227611     -1103.205898794     -1102.730913434         7.274495807
       178           89.000000         0.292367358       318.902243292     -1103.209890902     -1102.730907519         7.312916324
       179           89.500000         0.303789189       331.360704941     -1103.214724669     -1102.730926157         7.261643484
       180           90.000000         0.306041223       333.817131564     -1103.219299420     -1102.730966772        10.141722821
       181           90.500000         0.322567109       351.842885069     -1103.224452761     -1102.731099839         8.067846175
       182           91.000000         0.310422825       338.596401447     -1103.229146091     -1102.731228904         8.084398236
       183           91.500000         0.310518693       338.700970994     -1103.230114586     -1102.731237269         7.309778303
       184           92.000000         0.295820514       322.668803320     -1103.227606699     -1102.731180550         7.262438133
       185           92.500000         0.279178803       304.516711958     -1103.223957557     -1102.731152531         8.067472380
       186           93.000000         0.285616930       311.539155601     -1103.219437380     -1102.731104822         8.129933618
       187           93.500000         0.277953179       303.179852207     -1103.214226248     -1102.731037793         8.092293784
       188           94.000000         0.283899591       309.665953189     -1103.209044036     -1102.730937182         7.336130671
       189           94.500000         0.269663749       294.138084305     -1103.205208401     -1102.730886708         8.085651062
       190           95.000000         0.263011590       286.882184310     -1103.201868665     -1102.730837215        10.169538707
       191           95.500000         0.269080471       293.501868429     -1103.202566893     -1102.730887619         8.502505481
       192           96.000000         0.255420518       278.602155655     -1103.207044832     -1102.730995298         8.654084232
       193           96.500000         0.280617724       306.086227863     -1103.208100204     -1102.731012648         8.722622342
       194           97.000000         0.284355172       310.162882228     -1103.209757743     -1102.731054415         9.483564939
       195           97.500000         0.282997796       308.682312056     -1103.209909599     -1102.731036549         9.787338782
       196           98.000000         0.277833767       303.049602448     -1103.206408973     -1102.730916656         8.634772681
       197           98.500000         0.271499230       296.140151511     -1103.203608620     -1102.730828958         9.388447084
       198           99.000000         0.261259203       284.970752018     -1103.200836357     -1102.730737993         9.237822630
       199           99.500000         0.259847597       283.431031256     -1103.197861280     -1102.730653896         9.103723086
       200          100.000000         0.260299711       283.924178170     -1103.195610504     -1102.730600198        10.256723259
       201          100.500000         0.255145792       278.302496049     -1103.194418046     -1102.730584902         9.210554220
       202          101.000000         0.263847506       287.793966597     -1103.197918141     -1102.730686611         9.445654064
       203          101.500000         0.277600249       302.794891026     -1103.200922306     -1102.730748303         9.366450414
       204          102.000000         0.287373358       313.454994118     -1103.205090387     -1102.730808380         8.301223367
       205          102.500000         0.284357369       310.165277977     -1103.209221464     -1102.730862904         8.593032829
       206          103.000000         0.287741871       313.856953421     -1103.213229563     -1102.730941242         9.434945695
       207          103.500000         0.279191457       304.530514882     -1103.216058520     -1102.731030365         8.695285831
       208          104.000000         0.282207960       307.820792004     -1103.215867538     -1102.731063553         8.124534521
       209          104.500000         0.288989099       315.217378092     -1103.214328742     -1102.731028185         8.512333922
       210          105.000000         0.280851330       306.341035591     -1103.210611178     -1102.730941504        12.096258804
       211          105.500000         0.264152737       288.126900013     -1103.207239072     -1102.730803370         7.509937860
       212          106.000000         0.258376941       281.826900037     -1103.206640199     -1102.730699309         7.333745677
       213          106.500000         0.268555631       292.929394928     -1103.210886518     -1102.730741586         8.643203650
       214          107.000000         0.291743509       318.221774572     -1103.217909430     -1102.730915648         8.323245380
       215          107.500000         0.299763324       326.969457938     -1103.225815522     -1102.731146916         7.860947985
       216          108.000000         0.300822767       328.125054207     -1103.232911887     -1102.731340055         7.269695628
       217          108.500000         0.306917723       334.773181347     -1103.236221314     -1102.731383289         8.111968905
       218          109.000000         0.282590243       308.237770395     -1103.234021919     -1102.731286628         8.460672148
       219          109.500000         0.271409416       296.042185318     -1103.230580695     -1102.731186444         9.631716043
       220          110.000000         0.285439633       311.345767656     -1103.229680092     -1102.731141979        10.457216732
       221          110.500000         0.283421073       309.144005109     -1103.231908257     -1102.731161799         7.694870159
       222          111.000000         0.274427322       299.333992525     -1103.234158654     -1102.731155772         8.404524256
       223          111.500000         0.270895355       295.481468812     -1103.235735918     -1102.731140161         8.510670152
       224          112.000000         0.267631993       291.921929033     -1103.236638751     -1102.731177778         7.327807602
       225          112.500000         0.269134389       293.560679933     -1103.240701481     -1102.731298564         7.505568244
       226          113.000000         0.284366623       310.175371823     -1103.242601573     -1102.731325710         8.499404207
       227          113.500000         0.285019168       310.887141763     -1103.243463278     -1102.731269034         8.527139522