#     Step Nr.          Time[fs]        Kin.[a.u.]          Temp[K]            Pot.[a.u.]        Cons Qty[a.u.]        UsedTime[s]
         0            0.000000         0.273612846       300.000000000     -1102.629448594     -1102.355835748         0.000000000
         3            1.500000         0.280393422       307.434492997     -1102.653080703     -1102.356547289         8.575137932
         1            0.500000         0.279633819       306.601634918     -1102.634728487     -1102.356032711        47.030272476
         2            1.000000         0.278176228       305.003473713     -1102.643688340     -1102.356285322         7.386014741
         4            2.000000         0.282889483       310.171274159     -1102.655862600     -1102.356593452         8.632026676
         3            1.500000         0.280393422       307.434492997     -1102.653080703     -1102.356547289         7.305192817
         5            2.500000         0.294372846       322.762089256     -1102.653391721     -1102.356505399         9.050981045
         4            2.000000         0.282889483       310.171274159     -1102.655862600     -1102.356593452         7.402100496
         6            3.000000         0.293202260       321.478612092     -1102.644027094     -1102.356292113         8.690041330
         5            2.500000         0.294372846       322.762089256     -1102.653391721     -1102.356505399         7.355765723
         7            3.500000         0.275739443       302.331685376     -1102.631056927     -1102.356023130         8.636051476
         6            3.000000         0.293202260       321.478612092     -1102.644027094     -1102.356292113         7.466544729
         8            4.000000         0.264614578       290.133941924     -1102.619771042     -1102.355795899         8.523648474
         7            3.500000         0.275739443       302.331685376     -1102.631056927     -1102.356023130         7.321883358
         9            4.500000         0.268857948       294.786540953     -1102.613634927     -1102.355689469         8.190541495
         8            4.000000         0.264614578       290.133941924     -1102.619771042     -1102.355795899         7.248084664
         9            4.500000         0.268857948       294.786540953     -1102.613634927     -1102.355689469         7.253527239
        10            5.000000         0.262607548       287.933354685     -1102.612082629     -1102.355666725        11.180898488
        10            5.000000         0.262607548       287.933354685     -1102.612082629     -1102.355666725         9.678886853
        11            5.500000         0.288697192       316.539076467     -1102.616775792     -1102.355783250         8.421664536
        11            5.500000         0.288697192       316.539076467     -1102.616775792     -1102.355783250         7.256542075
        12            6.000000         0.295096611       323.555654134     -1102.622813260     -1102.355937950         8.705368474
        12            6.000000         0.295096611       323.555654134     -1102.622813260     -1102.355937950         7.262698025
        13            6.500000         0.289353988       317.259214176     -1102.629250655     -1102.356081233         8.606103763
        13            6.500000         0.289353988       317.259214176     -1102.629250655     -1102.356081233         7.385530096
        14            7.000000         0.287416783       315.135185470     -1102.637410482     -1102.356246228         8.516748857
        14            7.000000         0.287416783       315.135185470     -1102.637410482     -1102.356246228         7.502522729
        15            7.500000         0.310165102       340.077346930     -1102.641761748     -1102.356328622         8.555285137
        15            7.500000         0.310165102       340.077346930     -1102.641761748     -1102.356328622         8.044064160
        16            8.000000         0.323802738       355.030192819     -1102.645349103     -1102.356402515         8.463925734
        16            8.000000         0.323802738       355.030192819     -1102.645349103     -1102.356402515         8.293082677
        17            8.500000         0.301956868       331.077513241     -1102.645418760     -1102.356418530         8.585117582
        17            8.500000         0.301956868       331.077513241     -1102.645418760     -1102.356418530         8.591067418
        18            9.000000         0.286912673       314.582459298     -1102.641734958     -1102.356310656         8.476904314
        18            9.000000         0.286912673       314.582459298     -1102.641734958     -1102.356310656         8.747988570
        19            9.500000         0.276541909       303.211541919     -1102.635703652     -1102.356123440         8.549989626
        19            9.500000         0.276541909       303.211541919     -1102.635703652     -1102.356123440         8.435113002
        20           10.000000         0.260847091       286.003119536     -1102.628436222     -1102.355915126        12.434128933
        20           10.000000         0.260847091       286.003119536     -1102.628436222     -1102.355915126        11.626036715
        21           10.500000         0.250829117       275.019014031     -1102.621372875     -1102.355688604         8.654071335
        21           10.500000         0.250829117       275.019014031     -1102.621372875     -1102.355688604         9.101981591
        22           11.000000         0.252589683       276.949368713     -1102.619839890     -1102.355630752         8.813008156
        22           11.000000         0.252589683       276.949368713     -1102.619839890     -1102.355630752         8.699085128
        23           11.500000         0.254712048       279.276413740     -1102.626571548     -1102.355823251         8.838009778
        23           11.500000         0.254712048       279.276413740     -1102.626571548     -1102.355823251         8.564075924
        24           12.000000         0.265639894       291.258138723     -1102.636526005     -1102.356020668         8.467036221
        24           12.000000         0.265639894       291.258138723     -1102.636526005     -1102.356020668         9.063058902
        25           12.500000         0.277078124       303.799469221     -1102.645826859     -1102.356189502         8.340822976
        25           12.500000         0.277078124       303.799469221     -1102.645826859     -1102.356189502         8.696939927
        26           13.000000         0.276140999       302.771967344     -1102.652591961     -1102.356272544         8.678080391
        26           13.000000         0.276140999       302.771967344     -1102.652591961     -1102.356272544         8.504040919
        27           13.500000         0.297663960       326.370597939     -1102.655384720     -1102.356219451         8.407129630
        27           13.500000         0.297663960       326.370597939     -1102.655384720     -1102.356219451         8.982108638
        28           14.000000         0.292250721       320.435307919     -1102.655692042     -1102.356103565         8.520083122
        28           14.000000         0.292250721       320.435307919     -1102.655692042     -1102.356103565         8.537929703
        29           14.500000         0.281400579       308.538780420     -1102.654888372     -1102.356028025         8.294983763
        29           14.500000         0.281400579       308.538780420     -1102.654888372     -1102.356028025         8.753011949
        30           15.000000         0.286612223       314.253034546     -1102.651854052     -1102.355941964        11.520594709
        30           15.000000         0.286612223       314.253034546     -1102.651854052     -1102.355941964        12.044863220
        31           15.500000         0.301188497       330.235039789     -1102.649497290     -1102.355883179         8.546791919
        31           15.500000         0.301188497       330.235039789     -1102.649497290     -1102.355883179         8.596145093
        32           16.000000         0.299504682       328.388838219     -1102.646731418     -1102.355818637         8.453735754
        32           16.000000         0.299504682       328.388838219     -1102.646731418     -1102.355818637         8.759024773
        33           16.500000         0.291057519       319.127033606     -1102.645976761     -1102.355750903         8.305909999
        33           16.500000         0.291057519       319.127033606     -1102.645976761     -1102.355750903         8.633035138
        34           17.000000         0.291210761       319.295053980     -1102.647476574     -1102.355705892         8.319178782
        34           17.000000         0.291210761       319.295053980     -1102.647476574     -1102.355705892         8.627101287
        35           17.500000         0.303751951       333.045713179     -1102.652982102     -1102.355823547         8.476118527
        35           17.500000         0.303751951       333.045713179     -1102.652982102     -1102.355823547         8.317969669
        36           18.000000         0.299220135       328.076849934     -1102.659956618     -1102.356048442         8.680056132
        36           18.000000         0.299220135       328.076849934     -1102.659956618     -1102.356048442         8.623060882
        37           18.500000         0.316528355       347.054270077     -1102.662878593     -1102.356180240         8.510903645
        37           18.500000         0.316528355       347.054270077     -1102.662878593     -1102.356180240         8.688006073
        38           19.000000         0.312059887       342.154864507     -1102.660507582     -1102.356202008         8.420066729
        38           19.000000         0.312059887       342.154864507     -1102.660507582     -1102.356202008         8.645976234
        39           19.500000         0.316171730       346.663252967     -1102.656115673     -1102.356078685         8.228058737
        39           19.500000         0.316171730       346.663252967     -1102.656115673     -1102.356078685         8.629995078
        40           20.000000         0.299355453       328.225217601     -1102.648878514     -1102.355890093        11.648871191
        40           20.000000         0.299355453       328.225217601     -1102.648878514     -1102.355890093        11.772193011
        41           20.500000         0.290515955       318.533241422     -1102.643145712     -1102.355773629         8.255177233
        41           20.500000         0.290515955       318.533241422     -1102.643145712     -1102.355773629         8.904976916
        42           21.000000         0.292335239       320.527976607     -1102.641775355     -1102.355839829         8.408901300
        42           21.000000         0.292335239       320.527976607     -1102.641775355     -1102.355839829         8.746998522
        43           21.500000         0.292864229       321.107981598     -1102.641696945     -1102.355896983         8.701242376
        43           21.500000         0.292864229       321.107981598     -1102.641696945     -1102.355896983         8.714055039
        44           22.000000         0.298441806       327.223458585     -1102.641498294     -1102.355927731         8.451898817
        44           22.000000         0.298441806       327.223458585     -1102.641498294     -1102.355927731         8.683004849
        45           22.500000         0.281584966       308.740950017     -1102.641249503     -1102.355973007         8.416139960
        45           22.500000         0.281584966       308.740950017     -1102.641249503     -1102.355973007         8.358975820
        46           23.000000         0.268647469       294.555763713     -1102.638733432     -1102.355935123         8.451038353
        46           23.000000         0.268647469       294.555763713     -1102.638733432     -1102.355935123         8.736984834
        47           23.500000         0.272321768       298.584410955     -1102.640558486     -1102.355980954         8.640075941
        47           23.500000         0.272321768       298.584410955     -1102.640558486     -1102.355980954         8.921046987
        48           24.000000         0.280027628       307.033422556     -1102.643886369     -1102.356039317         8.520952407
        48           24.000000         0.280027628       307.033422556     -1102.643886369     -1102.356039317         8.507090528
        49           24.500000         0.277870189       304.667920803     -1102.647866085     -1102.356127491         8.339059573
        49           24.500000         0.277870189       304.667920803     -1102.647866085     -1102.356127491         8.555975918
        50           25.000000         0.275189966       301.729217684     -1102.650936078     -1102.356256634        12.300038110
        50           25.000000         0.275189966       301.729217684     -1102.650936078     -1102.356256634        12.526989948
        51           25.500000         0.260569407       285.698655714     -1102.652308206     -1102.356346909         8.413941789
        51           25.500000         0.260569407       285.698655714     -1102.652308206     -1102.356346909         8.448044591
        52           26.000000         0.260067903       285.148786102     -1102.653011744     -1102.356342919         8.353098754
        52           26.000000         0.260067903       285.148786102     -1102.653011744     -1102.356342919         8.422013652
        53           26.500000         0.259523824       284.552236394     -1102.650868573     -1102.356222289         8.390072931
        53           26.500000         0.259523824       284.552236394     -1102.650868573     -1102.356222289         8.484035410
        54           27.000000         0.258216561       283.118901724     -1102.649712215     -1102.356088336         8.541070689
        54           27.000000         0.258216561       283.118901724     -1102.649712215     -1102.356088336         8.925110493
        55           27.500000         0.252322957       276.656919568     -1102.649573181     -1102.356007795         8.665782761
        55           27.500000         0.252322957       276.656919568     -1102.649573181     -1102.356007795         8.550077613
        56           28.000000         0.250219224       274.350303125     -1102.654470790     -1102.356129352         8.477091398
        56           28.000000         0.250219224       274.350303125     -1102.654470790     -1102.356129352         8.704005726
        57           28.500000         0.266792766       292.522193684     -1102.663219866     -1102.356395973         8.968988720
        57           28.500000         0.266792766       292.522193684     -1102.663219866     -1102.356395973         8.547888402
        58           29.000000         0.270022295       296.063177828     -1102.667565255     -1102.356510507         8.653032813
        58           29.000000         0.270022295       296.063177828     -1102.667565255     -1102.356510507         8.615894102
        59           29.500000         0.272968396       299.293400089     -1102.671480487     -1102.356565130         8.498021346
        59           29.500000         0.272968396       299.293400089     -1102.671480487     -1102.356565130         9.057162311
        60           30.000000         0.276980269       303.692176295     -1102.671991386     -1102.356537916        12.345496282
        60           30.000000         0.276980269       303.692176295     -1102.671991386     -1102.356537916        12.324869320
        61           30.500000         0.274619786       301.104049797     -1102.671363550     -1102.356500826         8.599588413
        61           30.500000         0.274619786       301.104049797     -1102.671363550     -1102.356500826         8.793248996
        62           31.000000         0.274218381       300.663932521     -1102.668392698     -1102.356435724         8.654075671
        62           31.000000         0.274218381       300.663932521     -1102.668392698     -1102.356435724         9.017914508
        63           31.500000         0.278232801       305.065502826     -1102.666314114     -1102.356430160         8.918548983
        63           31.500000         0.278232801       305.065502826     -1102.666314114     -1102.356430160         8.577078912
        64           32.000000         0.291317859       319.412480537     -1102.662998567     -1102.356351195         8.795920387
        64           32.000000         0.291317859       319.412480537     -1102.662998567     -1102.356351195         8.684054229
        65           32.500000         0.287118339       314.807959572     -1102.660598886     -1102.356288021         8.817915671
        65           32.500000         0.287118339       314.807959572     -1102.660598886     -1102.356288021         8.784128249
        66           33.000000         0.277406894       304.159944898     -1102.656416776     -1102.356161111         8.574177213
        66           33.000000         0.277406894       304.159944898     -1102.656416776     -1102.356161111         8.658920556
        67           33.500000         0.269359451       295.336408691     -1102.654625485     -1102.356095346         8.778955955
        67           33.500000         0.269359451       295.336408691     -1102.654625485     -1102.356095346         8.785997704
        68           34.000000         0.284279324       311.695150794     -1102.655748156     -1102.356119225         8.562956676
        68           34.000000         0.284279324       311.695150794     -1102.655748156     -1102.356119225         8.787979729
        69           34.500000         0.307167002       336.790110299     -1102.663050205     -1102.356274076         8.864150390
        69           34.500000         0.307167002       336.790110299     -1102.663050205     -1102.356274076         8.866112925
        70           35.000000         0.309877738       339.762269572     -1102.668570830     -1102.356387568        12.798561864
        70           35.000000         0.309877738       339.762269572     -1102.668570830     -1102.356387568        13.022166535
        71           35.500000         0.306403989       335.953513258     -1102.670562621     -1102.356379401         8.570254330
        71           35.500000         0.306403989       335.953513258     -1102.670562621     -1102.356379401         8.792916119
        72           36.000000         0.294675470       323.093898242     -1102.671396058     -1102.356341667         9.052924410
        72           36.000000         0.294675470       323.093898242     -1102.671396058     -1102.356341667         8.958007537
        73           36.500000         0.304358645       333.710916780     -1102.670834857     -1102.356309045         8.619256143
        73           36.500000         0.304358645       333.710916780     -1102.670834857     -1102.356309045         8.700980667
        74           37.000000         0.291807604       319.949456255     -1102.670878157     -1102.356269137         8.583107494
        74           37.000000         0.291807604       319.949456255     -1102.670878157     -1102.356269137         8.865152590
        75           37.500000         0.308475946       338.225288705     -1102.673067446     -1102.356292656         8.790836979
        75           37.500000         0.308475946       338.225288705     -1102.673067446     -1102.356292656         8.638888713
        76           38.000000         0.283414248       310.746646682     -1102.675533624     -1102.356355391         8.467243496
        76           38.000000         0.283414248       310.746646682     -1102.675533624     -1102.356355391         8.847122837
        77           38.500000         0.281646563       308.808486783     -1102.678692285     -1102.356429445         8.760803316
        77           38.500000         0.281646563       308.808486783     -1102.678692285     -1102.356429445         8.703852147
        78           39.000000         0.287676450       315.419895249     -1102.682841958     -1102.356525077         8.316975538
        78           39.000000         0.287676450       315.419895249     -1102.682841958     -1102.356525077         8.788193762
        79           39.500000         0.296160721       324.722386508     -1102.682175598     -1102.356498364         8.736093488
        79           39.500000         0.296160721       324.722386508     -1102.682175598     -1102.356498364         8.852698367
        80           40.000000         0.285683813       313.235088653     -1102.677974318     -1102.356356637        11.431934506
        80           40.000000         0.285683813       313.235088653     -1102.677974318     -1102.356356637        11.424437147
        81           40.500000         0.307988658       337.691007621     -1102.673529462     -1102.356219005         8.714729462
        82           41.000000         0.283636192       310.989995645     -1102.670246716     -1102.356145174         8.745639972
        81           40.500000         0.307988658       337.691007621     -1102.673529462     -1102.356219005        11.085802715
        83           41.500000         0.292098231       320.268111452     -1102.671499341     -1102.356216322         8.836661071
        82           41.000000         0.283636192       310.989995645     -1102.670246716     -1102.356145174        11.784164108
        84           42.000000         0.319349960       350.147990617     -1102.673448769     -1102.356302368         8.569104291
        83           41.500000         0.292098231       320.268111452     -1102.671499341     -1102.356216322         9.705953516
        85           42.500000         0.324155512       355.416988732     -1102.673504057     -1102.356347537         8.789977863
        84           42.000000         0.319349960       350.147990617     -1102.673448769     -1102.356302368         8.669024330
        86           43.000000         0.300808653       329.818564681     -1102.671330785     -1102.356328113         8.663133744
        85           42.500000         0.324155512       355.416988732     -1102.673504057     -1102.356347537         8.737961382
        87           43.500000         0.297078691       325.728885646     -1102.670057303     -1102.356340372         8.376014829
        86           43.000000         0.300808653       329.818564681     -1102.671330785     -1102.356328113         8.782141253
        88           44.000000         0.300955400       329.979463577     -1102.669580757     -1102.356351231         8.481146824
        87           43.500000         0.297078691       325.728885646     -1102.670057303     -1102.356340372         8.881050460
        89           44.500000         0.292778428       321.013906599     -1102.667336026     -1102.356316568         8.752904724
        88           44.000000         0.300955400       329.979463577     -1102.669580757     -1102.356351231         9.492917247
        90           45.000000         0.274898758       301.409925937     -1102.662884544     -1102.356238183        11.844096750
        89           44.500000         0.292778428       321.013906599     -1102.667336026     -1102.356316568         8.765075613
        91           45.500000         0.273692113       300.086912077     -1102.659033483     -1102.356178724         8.873092070
        90           45.000000         0.274898758       301.409925937     -1102.662884544     -1102.356238183        11.714984201
        92           46.000000         0.263519393       288.933136857     -1102.657525460     -1102.356128008         8.670693390
        91           45.500000         0.273692113       300.086912077     -1102.659033483     -1102.356178724         8.588115621
        93           46.500000         0.271944812       298.171101600     -1102.657041021     -1102.356118620         8.454371985
        92           46.000000         0.263519393       288.933136857     -1102.657525460     -1102.356128008         8.568976302
        94           47.000000         0.261193256       286.382668676     -1102.659305313     -1102.356168408         8.683198821
        93           46.500000         0.271944812       298.171101600     -1102.657041021     -1102.356118620         8.655018024
        95           47.500000         0.268739647       294.656831480     -1102.662257239     -1102.356248589         8.307127312
        94           47.000000         0.261193256       286.382668676     -1102.659305313     -1102.356168408         8.485013098
        96           48.000000         0.277668876       304.447192794     -1102.659258383     -1102.356183994         8.624634720
        95           47.500000         0.268739647       294.656831480     -1102.662257239     -1102.356248589         8.724103734
        97           48.500000         0.283957697       311.342506709     -1102.654190135     -1102.356020721         8.640035752
        96           48.000000         0.277668876       304.447192794     -1102.659258383     -1102.356183994         8.696850643
        98           49.000000         0.275837644       302.439357540     -1102.649218764     -1102.355862121         8.673316818
        97           48.500000         0.283957697       311.342506709     -1102.654190135     -1102.356020721         8.746088147
        99           49.500000         0.271452640       297.631464532     -1102.647594551     -1102.355828560         8.735752087
        98           49.000000         0.275837644       302.439357540     -1102.649218764     -1102.355862121         8.858083263
       100           50.000000         0.259610339       284.647095631     -1102.650520153     -1102.355935729        11.728987060
        99           49.500000         0.271452640       297.631464532     -1102.647594551     -1102.355828560         8.648061123
       101           50.500000         0.269993665       296.031786957     -1102.655543128     -1102.356078933         8.803202040
       100           50.000000         0.259610339       284.647095631     -1102.650520153     -1102.355935729        11.393904086
       102           51.000000         0.273117442       299.456819301     -1102.661215689     -1102.356201154         8.541313354
       101           50.500000         0.269993665       296.031786957     -1102.655543128     -1102.356078933         8.939155146
       103           51.500000         0.272037750       298.273002340     -1102.662388408     -1102.356193925         8.827691678
       102           51.000000         0.273117442       299.456819301     -1102.661215689     -1102.356201154         8.563853230
       104           52.000000         0.271881612       298.101806460     -1102.660090195     -1102.356086814         8.645854834
       103           51.500000         0.272037750       298.273002340     -1102.662388408     -1102.356193925         8.822119299
       105           52.500000         0.261329875       286.532462964     -1102.656857315     -1102.355953450         8.744215831
       104           52.000000         0.271881612       298.101806460     -1102.660090195     -1102.356086814         8.793124724
       106           53.000000         0.257851077       282.718170422     -1102.658945705     -1102.356019583         8.806774627
       105           52.500000         0.261329875       286.532462964     -1102.656857315     -1102.355953450         8.731822476
       107           53.500000         0.267209384       292.978989626     -1102.663842534     -1102.356194618         8.619479209
       106           53.000000         0.257851077       282.718170422     -1102.658945705     -1102.356019583         8.686066572
       108           54.000000         0.273131830       299.472595150     -1102.669023867     -1102.356369503         8.979159832
       107           53.500000         0.267209384       292.978989626     -1102.663842534     -1102.356194618         8.618079338
       109           54.500000         0.279496678       306.451267896     -1102.674150739     -1102.356461531         8.833898678
       108           54.000000         0.273131830       299.472595150     -1102.669023867     -1102.356369503         8.693005607
       110           55.000000         0.269132455       295.087521462     -1102.673751209     -1102.356425879        11.255988710
       109           54.500000         0.279496678       306.451267896     -1102.674150739     -1102.356461531         8.671936948
       111           55.500000         0.265321275       290.908791904     -1102.669773159     -1102.356314786         8.931355450
       110           55.000000         0.269132455       295.087521462     -1102.673751209     -1102.356425879        11.309147105
       112           56.000000         0.277186419       303.918208076     -1102.664105670     -1102.356152559         8.587896366
       111           55.500000         0.265321275       290.908791904     -1102.669773159     -1102.356314786         8.760945883
       113           56.500000         0.266558642       292.265491164     -1102.660314495     -1102.356062526         8.736685403
       112           56.000000         0.277186419       303.918208076     -1102.664105670     -1102.356152559         8.637128823
       114           57.000000         0.280536149       307.590985113     -1102.656732764     -1102.356020482         9.159459889
       113           56.500000         0.266558642       292.265491164     -1102.660314495     -1102.356062526         8.684890743
       115           57.500000         0.282306491       309.532058375     -1102.656574487     -1102.356046989         8.716925088
       114           57.000000         0.280536149       307.590985113     -1102.656732764     -1102.356020482         8.594728481