ITEM: TIMESTEP
0
ITEM: NUMBER OF ATOMS
360
ITEM: BOX BOUNDS pp pp pp
0.0000000000000000e+00 6.6943295008216896e+00
0.0000000000000000e+00 6.6943295008216896e+00
0.0000000000000000e+00 6.6943295008216896e+00
ITEM: ATOMS id type xs ys zs
249 1 0.0935615 0.143651 0.0945958
42 1 0.279604 0.187592 0.0602825
191 1 0.0293246 0.235359 0.20738
258 1 0.226697 0.0174958 0.180485
288 1 0.192428 0.18677 0.20478
299 2 0.189151 0.0888965 0.0362372
309 2 0.123399 0.0770722 0.210653
128 1 0.306553 0.0442808 0.0298671
171 1 0.0293497 0.00647533 0.132479
64 1 0.19464 0.067527 0.338495
51 1 0.0911307 0.0591182 0.462292
112 1 0.109627 0.19282 0.341964
67 1 0.247736 0.0413766 0.496029
131 1 0.238312 0.191231 0.452904
170 1 0.0191141 0.0763667 0.290073
155 1 0.0329209 0.230482 0.458621
244 1 0.316714 0.168688 0.303091
2 1 0.234915 0.169094 0.720122
340 2 0.187883 0.0462213 0.660983
347 2 0.0382384 0.0189471 0.650492
255 1 0.152028 0.135505 0.583507
52 1 0.0920219 0.0979466 0.732412
187 1 0.094439 0.247433 0.699752
203 1 0.325985 0.104242 0.612285
101 1 0.122775 0.0495569 0.915016
157 1 0.152344 0.201797 0.958493
230 1 0.0390921 0.229113 0.84665
211 1 0.29033 0.108408 0.894033
353 2 0.170769 0.158049 0.838838
113 1 0.221134 0.027518 0.790609
358 2 0.30684 0.457059 0.193902
37 1 0.284359 0.321742 0.180752
53 1 0.145839 0.291056 0.0898283
196 1 0.213934 0.440777 0.0886537
168 1 0.0578977 0.398853 0.178583
312 2 0.144451 0.315529 0.223367
323 2 0.0415707 0.366459 0.0574362
265 1 0.193233 0.440775 0.24647
166 1 0.0549956 0.329342 0.326965
174 1 0.221838 0.296314 0.326238
328 2 0.139127 0.297461 0.430066
210 1 0.266749 0.355207 0.46343
79 1 0.00856874 0.484498 0.303382
188 1 0.160342 0.467196 0.386951
45 1 0.0674276 0.384918 0.482422
291 2 0.317778 0.473701 0.428452
311 2 0.175385 0.417074 0.549484
14 1 0.165636 0.284004 0.56091
224 1 0.232737 0.361844 0.676781
54 1 0.0851244 0.427254 0.639848
325 2 0.308645 0.457079 0.722717
1 1 0.315708 0.263277 0.581958
204 1 0.0383886 0.376121 0.80421
74 1 0.12548 0.374763 0.955112
68 1 0.184328 0.452194 0.788019
243 1 0.186927 0.289294 0.813602
287 1 0.297749 0.303381 0.963346
218 1 0.317582 0.401719 0.844999
261 1 0.235377 0.497255 0.943276
102 1 0.315534 0.742863 0.12287
351 2 0.192157 0.565155 0.0572448
60 1 0.270138 0.585589 0.168739
263 1 0.0779923 0.506015 0.0505202
21 1 0.110643 0.566396 0.193089
277 1 0.166254 0.676708 0.101875
34 1 0.042577 0.72993 0.191928
300 2 0.0348918 0.619559 0.098314
83 1 0.0419885 0.736584 0.0333987
114 1 0.289112 0.554382 0.318924
56 1 0.190563 0.647673 0.413539
84 1 0.0582069 0.64077 0.329666
194 1 0.0561129 0.683588 0.484942
355 2 0.167409 0.57105 0.298995
217 1 0.193869 0.690447 0.262363
337 2 0.332657 0.650368 0.421647
9 1 0.270535 0.557787 0.508377
280 1 0.259009 0.720059 0.711059
104 1 0.153048 0.655628 0.618571
331 2 0.106543 0.551206 0.668957
344 2 0.0426062 0.661594 0.719669
269 1 0.237131 0.538724 0.65869
164 1 0.269647 0.719815 0.548991
19 1 0.114957 0.538656 0.530773
220 1 0.00637919 0.524246 0.746094
158 1 0.148052 0.612023 0.776223
259 1 0.217128 0.720103 0.861195
274 1 0.128532 0.640775 0.95615
190 1 0.309511 0.589932 0.78596
214 1 0.0133727 0.679436 0.850723
30 1 0.279508 0.648313 0.996148
22 1 0.0786956 0.511612 0.883076
200 1 0.243534 0.839689 0.236721
110 1 0.289881 0.910668 0.0958692
132 1 0.122386 0.850485 0.134678
154 1 0.15658 0.961413 0.0364129
318 2 0.0618007 0.861072 0.00841538
225 1 0.177131 0.829895 0.382552
333 2 0.161065 0.946786 0.45053
16 1 0.323908 0.787173 0.383749
109 1 0.0200262 0.781592 0.349393
246 1 0.28298 0.939409 0.365186
44 1 0.12971 0.946439 0.263577
356 2 0.124862 0.817039 0.262504
212 1 0.0187965 0.934656 0.378909
153 1 0.0690755 0.850469 0.499319
342 2 0.16348 0.770759 0.494571
143 1 0.167419 0.830781 0.640662
82 1 0.267632 0.945581 0.655133
273 1 0.0287917 0.753716 0.616843
320 2 0.023281 0.891612 0.623894
76 1 0.136818 0.970214 0.570591
159 1 0.259759 0.869573 0.507071
111 1 0.0959852 0.931726 0.730575
264 1 0.112143 0.88624 0.874538
7 1 0.00591289 0.970338 0.979685
124 1 0.264539 0.944338 0.931634
215 1 0.245697 0.858469 0.787448
8 1 0.10862 0.771079 0.766626
354 2 0.0958421 0.761021 0.907233
97 1 0.185997 0.791443 0.999102
285 1 0.523414 0.131791 0.0715499
41 1 0.382108 0.0910867 0.168475
127 1 0.626369 0.0146104 0.136391
327 2 0.513716 0.0464998 0.178058
20 1 0.663943 0.144015 0.0376967
18 1 0.509749 0.173314 0.237396
319 2 0.613193 0.151753 0.174102
302 2 0.338682 0.201171 0.186132
281 1 0.421198 0.246053 0.104907
80 1 0.383501 0.110389 0.434365
70 1 0.539379 0.120899 0.393903
15 1 0.455074 0.0471318 0.295866
350 2 0.444824 0.182661 0.3362
286 1 0.645319 0.237837 0.283387
39 1 0.632185 0.0728363 0.285058
298 2 0.497585 0.00324095 0.448441
3 1 0.635837 0.0437499 0.494729
251 1 0.611532 0.19164 0.539781
245 1 0.430217 0.195364 0.687234
241 1 0.594645 0.169373 0.710561
85 1 0.501511 0.0825996 0.574041
116 1 0.464881 0.229586 0.540867
346 2 0.49246 0.07482 0.718327
197 1 0.612607 0.00853895 0.671956
125 1 0.402454 0.180452 0.964072
36 1 0.481197 0.152806 0.827053
186 1 0.430871 0.035244 0.924616
227 1 0.346832 0.233736 0.813691
315 2 0.529535 0.124702 0.947972
160 1 0.620834 0.116506 0.862878
99 1 0.371989 0.0756476 0.771977
81 1 0.58561 0.00436051 0.985941
250 1 0.488553 0.398572 0.175425
231 1 0.366428 0.403837 0.0767709
189 1 0.661887 0.488521 0.0480266
66 1 0.529726 0.405177 0.0249006
149 1 0.572721 0.26372 0.124915
141 1 0.640954 0.395493 0.181592
301 2 0.543366 0.310767 0.243103
133 1 0.500663 0.432773 0.331996
313 2 0.607107 0.477826 0.278931
12 1 0.426849 0.398708 0.453957
58 1 0.64103 0.378936 0.35525
117 1 0.41655 0.287658 0.257433
135 1 0.526101 0.280003 0.375695
223 1 0.338468 0.412541 0.316615
176 1 0.370514 0.263678 0.411726
156 1 0.560617 0.480757 0.471139
293 2 0.641855 0.269868 0.438275
278 1 0.551152 0.311824 0.658963
317 2 0.428353 0.346613 0.581618
178 1 0.488219 0.452315 0.623312
272 1 0.400101 0.339631 0.711175
229 1 0.564339 0.33857 0.510494
121 1 0.334135 0.440318 0.582904
335 2 0.503409 0.26619 0.775725
202 1 0.467825 0.329087 0.877927
162 1 0.446552 0.474536 0.790322
119 1 0.631854 0.269869 0.819467
262 1 0.406182 0.463948 0.944534
222 1 0.595533 0.412476 0.771268
23 1 0.560009 0.484606 0.903994
89 1 0.5687 0.253401 0.96577
326 2 0.429501 0.319105 0.998828
146 1 0.399656 0.566038 0.0707014
252 1 0.630605 0.658136 0.20205
254 1 0.559585 0.531389 0.1653
28 1 0.473301 0.661384 0.170237
221 1 0.415935 0.53731 0.236088
207 1 0.548036 0.593577 0.0223152
242 1 0.580829 0.736445 0.0595281
47 1 0.438257 0.711096 0.0028849
357 2 0.658227 0.610374 0.0790917
107 1 0.575269 0.635372 0.472215
165 1 0.428135 0.552089 0.401457
239 1 0.467475 0.713361 0.388121
115 1 0.546565 0.588964 0.314567
90 1 0.353994 0.681247 0.268281
181 1 0.53622 0.591845 0.628339
308 2 0.369111 0.708125 0.63677
140 1 0.385206 0.561835 0.652487
103 1 0.61641 0.721164 0.736064
59 1 0.461024 0.676844 0.742262
334 2 0.43974 0.527268 0.536178
129 1 0.419245 0.652954 0.527314
201 1 0.437758 0.608815 0.870254
78 1 0.579565 0.580269 0.786646
161 1 0.546515 0.720815 0.891965
27 1 0.531345 0.913955 0.231237
87 1 0.455794 0.826251 0.104988
226 1 0.367624 0.936375 0.230314
341 2 0.566577 0.879172 0.0686861
105 1 0.459694 0.988777 0.0746288
289 2 0.545484 0.782673 0.184826
163 1 0.660845 0.834358 0.140518
152 1 0.586272 0.943149 0.36598
173 1 0.430381 0.89839 0.397639
35 1 0.593289 0.774184 0.310757
216 1 0.596842 0.804574 0.462208
49 1 0.427978 0.813767 0.268199
349 2 0.66049 0.896087 0.272826
305 2 0.65937 0.91856 0.476898
336 2 0.553946 0.882893 0.68154
151 1 0.376749 0.981036 0.529098
237 1 0.382192 0.821731 0.693545
145 1 0.444228 0.965536 0.674683
206 1 0.53643 0.926037 0.542401
219 1 0.41342 0.824582 0.538612
29 1 0.527045 0.763563 0.61134
86 1 0.66215 0.864683 0.597492
50 1 0.539438 0.973124 0.806083
33 1 0.380645 0.928288 0.822879
25 1 0.486468 0.86278 0.95958
329 2 0.598432 0.867574 0.859276
40 1 0.508366 0.822918 0.791046
94 1 0.651723 0.840722 0.970507
343 2 0.37859 0.937302 0.99114
253 1 0.370811 0.757554 0.842022
95 1 0.336325 0.817353 0.987536
5 1 0.755091 0.0832136 0.136301
167 1 0.843533 0.198624 0.0481384
247 1 0.904428 0.10998 0.172137
122 1 0.882995 0.029752 0.0462559
321 2 0.882045 0.228086 0.20915
314 2 0.981243 0.197362 0.084758
126 1 0.705638 0.158703 0.410356
77 1 0.880701 0.212885 0.482168
177 1 0.949379 0.0782694 0.431581
6 1 0.783403 0.135713 0.270963
144 1 0.886427 0.0134951 0.288001
307 2 0.833241 0.130333 0.397235
199 1 0.919785 0.200998 0.333912
10 1 0.751636 0.0043113 0.375126
294 2 0.850903 0.0866517 0.645482
92 1 0.850577 0.215247 0.641392
193 1 0.725077 0.105304 0.632589
88 1 0.938273 0.141599 0.732924
295 2 0.74811 0.193843 0.524037
32 1 0.82233 0.0608074 0.5307
256 1 0.988198 0.145606 0.589786
106 1 0.884601 0.201678 0.878148
359 2 0.892708 0.0766675 0.918282
69 1 0.822709 0.0500378 0.798109
63 1 0.753632 0.179626 0.773036
192 1 0.734916 0.230327 0.930018
138 1 0.761988 0.0753409 0.944533
142 1 0.996421 0.11958 0.97532
234 1 0.983621 0.0469486 0.834323
290 2 0.702913 0.0482835 0.765234
266 1 0.79209 0.411147 0.131793
271 1 0.934374 0.321107 0.123012
183 1 0.949115 0.47137 0.104937
185 1 0.698648 0.310893 0.0535598
46 1 0.756734 0.261063 0.183351
345 2 0.872686 0.499191 0.202363
205 1 0.770909 0.428789 0.304834
182 1 0.787909 0.273618 0.360391
73 1 0.928659 0.36123 0.422398
134 1 0.822877 0.474986 0.45742
292 2 0.896087 0.470549 0.348044
147 1 0.902018 0.370269 0.263076
322 2 0.677333 0.437918 0.479822
24 1 0.696811 0.270087 0.639506
169 1 0.812288 0.37095 0.658597
316 2 0.878795 0.330835 0.542594
130 1 0.943025 0.442758 0.569388
332 2 0.953366 0.419452 0.702822
330 2 0.796681 0.47971 0.597091
172 1 0.983839 0.309556 0.612159
339 2 0.70377 0.365936 0.721055
62 1 0.746659 0.322926 0.501646
233 1 0.674335 0.415893 0.60943
137 1 0.744979 0.48799 0.826815
55 1 0.773764 0.327591 0.812795
208 1 0.970881 0.423328 0.959676
324 2 0.933161 0.325928 0.884201
96 1 0.89611 0.435782 0.826632
276 1 0.814981 0.495546 0.95879
213 1 0.843252 0.347347 0.969321
98 1 0.681453 0.381397 0.917249
195 1 0.999504 0.273649 0.984392
248 1 0.923279 0.296857 0.754798
26 1 0.822263 0.575633 0.0958966
139 1 0.745952 0.707468 0.0893164
283 1 0.720862 0.541603 0.200476
48 1 0.891213 0.720679 0.0959381
297 2 0.825659 0.647789 0.205187
267 1 0.954838 0.597317 0.189192
209 1 0.907014 0.661337 0.425316
184 1 0.706852 0.695288 0.396861
282 1 0.841458 0.576764 0.311987
236 1 0.98854 0.529725 0.453282
303 2 0.781468 0.618261 0.446655
61 1 0.899632 0.735899 0.254533
175 1 0.678052 0.540881 0.371152
179 1 0.838981 0.524682 0.709612
257 1 0.898461 0.679936 0.705451
360 2 0.781584 0.645711 0.657481
38 1 0.707281 0.544186 0.531744
43 1 0.846238 0.597298 0.55609
306 2 0.912928 0.715346 0.568968
120 1 0.686836 0.546822 0.682727
93 1 0.668603 0.685435 0.589051
284 1 0.992518 0.59674 0.603549
100 1 0.757898 0.636572 0.781051
4 1 0.810628 0.663656 0.951512
13 1 0.89981 0.583019 0.85029
304 2 0.943014 0.710429 0.949843
348 2 0.679917 0.709381 0.975602
260 1 0.677005 0.592835 0.931332
198 1 0.868283 0.749488 0.838221
57 1 0.966914 0.592171 0.98974
240 1 0.945918 0.876598 0.0741602
118 1 0.976191 0.881107 0.22445
65 1 0.742751 0.942563 0.0387586
123 1 0.827498 0.85525 0.158873
268 1 0.744535 0.969909 0.229938
310 2 0.907792 0.969135 0.165632
108 1 0.751987 0.752135 0.240145
296 2 0.82637 0.760817 0.385625
71 1 0.854508 0.870792 0.325454
31 1 0.712884 0.844437 0.375044
17 1 0.921573 0.834616 0.453821
352 2 0.893166 0.965402 0.425646
11 1 0.886015 0.840188 0.617188
232 1 0.965056 0.964631 0.5375
228 1 0.770399 0.958734 0.659783
275 1 0.768923 0.769437 0.69848
150 1 0.926355 0.990598 0.691956
91 1 0.792251 0.916275 0.500484
279 1 0.79392 0.757535 0.526719
238 1 0.967038 0.831312 0.745937
235 1 0.671571 0.869149 0.746992
75 1 0.864884 0.947754 0.914768
136 1 0.690079 0.96428 0.874057
270 1 0.824873 0.887063 0.784348
148 1 0.974667 0.830482 0.901679
180 1 0.717006 0.762813 0.855771
72 1 0.813676 0.819311 0.992912
338 2 0.946511 0.929778 0.821497
ITEM: TIMESTEP
10000000
ITEM: NUMBER OF ATOMS
360
ITEM: BOX BOUNDS pp pp pp
0.0000000000000000e+00 6.6943295008216896e+00
0.0000000000000000e+00 6.6943295008216896e+00
0.0000000000000000e+00 6.6943295008216896e+00
ITEM: ATOMS id type xs ys zs
350 2 0.0356358 0.224357 0.0658529
142 1 0.136528 0.203704 0.145117
171 1 0.199132 0.0623006 0.141971
117 1 0.283554 0.214018 0.0921578
122 1 0.067518 0.0869678 0.0674278
191 1 0.0028309 0.169434 0.191733
132 1 0.25932 0.238239 0.244248
295 2 0.083425 0.0786511 0.389715
80 1 0.226974 0.101718 0.389074
188 1 0.118527 0.198744 0.311892
321 2 0.226308 0.118187 0.264746
112 1 0.115149 0.0475744 0.258056
314 2 0.13971 0.145035 0.61257
273 1 0.00581676 0.0848182 0.649313
300 2 0.269059 0.0448025 0.504562
88 1 0.157815 0.0380896 0.671894
204 1 0.264313 0.149452 0.670979
131 1 0.126019 0.0826222 0.506571
111 1 0.280793 0.192855 0.516999
130 1 0.104028 0.180267 0.735083
292 2 0.285833 0.00560762 0.728977
179 1 0.261365 0.227321 0.939191
287 1 0.107231 0.176657 0.887225
2 1 0.221453 0.101287 0.819142
247 1 0.0477464 0.0356009 0.917718
272 1 0.201304 0.0974095 0.993568
353 2 0.0461515 0.0337786 0.774309
265 1 0.195394 0.349614 0.155323
144 1 0.259573 0.367029 0.00820463
311 2 0.185286 0.475815 0.211315
168 1 0.108002 0.435578 0.0514742
165 1 0.0558999 0.467625 0.191831
263 1 0.0381265 0.320509 0.14444
37 1 0.130351 0.287203 -0.00484635
254 1 0.284345 0.482268 0.128652
308 2 0.245942 0.398708 0.413969
166 1 0.102142 0.405067 0.44472
12 1 0.229733 0.268206 0.393904
223 1 0.272759 0.42285 0.280699
288 1 0.116805 0.35626 0.289756
319 2 0.0185725 0.409774 0.35114
310 2 0.0108162 0.276212 0.264099
9 1 0.010664 0.283534 0.388725
255 1 0.0816694 0.394351 0.720281
332 2 0.117862 0.372831 0.594131
261 1 0.139965 0.499911 0.614503
146 1 0.23332 0.407964 0.703515
121 1 0.241919 0.380155 0.539211
54 1 0.181916 0.273706 0.648511
326 2 0.00890848 0.316723 0.502238
77 1 0.0250652 0.255687 0.633505
126 1 0.117781 0.250296 0.516415
53 1 0.105535 0.416493 0.891897
14 1 0.306001 0.374341 0.866131
116 1 0.178381 0.29086 0.816953
99 1 0.0171248 0.300027 0.824174
60 1 0.0775963 0.628582 0.23831
34 1 0.0375501 0.673061 0.0450346
277 1 0.151305 0.576407 0.105
115 1 0.228233 0.595958 0.23822
148 1 0.274378 0.720879 0.131879
221 1 0.302441 0.602306 0.0338927
345 2 0.264163 0.522103 0.353898
145 1 0.254284 0.644675 0.405558
143 1 0.111518 0.667308 0.380882
43 1 0.0381371 0.541007 0.461604
56 1 0.130356 0.508779 0.330553
114 1 0.203673 0.517033 0.473451
275 1 0.00471048 0.713474 0.483725
218 1 0.096018 0.693379 0.705041
181 1 0.222286 0.627668 0.681778
90 1 0.147774 0.668613 0.543461
320 2 0.281251 0.50866 0.631942
140 1 0.307577 0.608597 0.555302
238 1 0.0155344 0.599878 0.607023
346 2 0.0473563 0.507487 0.68994
101 1 0.216801 0.653313 0.851608
74 1 0.0807096 0.563305 0.936541
154 1 0.13928 0.520336 0.774396
269 1 0.291688 0.520187 0.791683
276 1 0.221981 0.505081 0.939646
57 1 0.0662709 0.713982 0.88367
83 1 0.184826 0.686907 0.995856
329 2 0.336733 0.643542 0.777098
25 1 0.290084 0.939557 0.0103412
296 2 0.0861026 0.886262 0.130527
312 2 0.223059 0.818405 0.0398715
243 1 0.207614 0.896877 0.161509
203 1 0.145656 0.960802 0.024661
348 2 0.302821 0.971897 0.144892
259 1 0.129147 0.759083 0.130067
5 1 0.00646954 0.986667 0.165531
342 2 0.0398451 0.764033 0.236607
226 1 0.32831 0.852944 0.254846
240 1 0.0865129 0.820101 0.00406421
123 1 0.096908 0.881056 0.268417
71 1 0.0184456 0.840213 0.401568
356 2 0.217938 0.885893 0.317264
51 1 0.146064 0.948792 0.406614
225 1 0.172805 0.797736 0.433983
325 2 0.289059 0.785165 0.367572
244 1 0.310775 0.94154 0.408757
118 1 0.0100812 0.984157 0.4785
156 1 0.257094 0.993996 0.267645
200 1 0.204319 0.750692 0.279817
214 1 0.046936 0.888881 0.713084
328 2 0.0831397 0.978106 0.583353
110 1 0.202533 0.78675 0.625853
280 1 0.310482 0.774133 0.497964
237 1 0.22035 0.938979 0.545174
317 2 0.181592 0.911145 0.694893
69 1 0.077674 0.854909 0.557538
50 1 0.302813 0.882125 0.67604
8 1 0.0402982 0.869269 0.860736
82 1 0.208703 0.854041 0.913921
7 1 0.162815 0.958404 0.808035
274 1 0.182568 0.799567 0.772491
293 2 0.223164 1.00053 0.916632
186 1 0.32699 0.935953 0.842117
190 1 0.323802 0.771451 0.812884
258 1 0.477388 0.00891966 0.0910424
27 1 0.362951 0.11912 0.216875
128 1 0.545767 0.113752 0.194825
48 1 0.449105 0.200719 0.113288
335 2 0.541109 0.124753 0.0703871
44 1 0.343346 0.0763498 0.0705156
36 1 0.662247 0.136378 0.0252046
250 1 0.609036 0.246094 0.139007
256 1 0.544126 0.12648 0.46883
135 1 0.610345 0.202373 0.309263
182 1 0.481337 0.089791 0.332778
301 2 0.356678 0.0666662 0.331253
67 1 0.38883 0.0833095 0.466576
64 1 0.35675 0.186891 0.367309
337 2 0.635878 0.0889589 0.366038
309 2 0.419912 0.205124 0.484383
3 1 0.601396 -0.00327727 0.28783
270 1 0.542508 0.085926 0.706759
193 1 0.584884 0.19541 0.604358
232 1 0.431316 0.165055 0.607086
151 1 0.502798 0.013982 0.575696
253 1 0.34776 0.0255327 0.599682
33 1 0.610188 0.116101 0.870524
85 1 0.471518 0.193224 0.850441
20 1 0.481662 0.101715 0.968762
333 2 0.38452 0.175879 0.991247
161 1 0.389413 0.0849942 0.77066
289 2 0.586763 0.201254 0.786089
278 1 0.337561 0.0687734 0.91587
241 1 0.538217 0.233907 0.990212
202 1 0.337669 0.231805 0.787744
105 1 0.603648 0.00697598 0.970527
281 1 0.503657 0.358925 0.133304
357 2 0.388902 0.441088 0.20443
42 1 0.569096 0.494642 0.106015
303 2 0.644648 0.384764 0.145744
162 1 0.6406 0.353113 0.0235532
196 1 0.348264 0.33585 0.147011
359 2 0.499991 0.379878 0.00969713
231 1 0.390008 0.444382 0.0194964
55 1 0.505257 0.418793 0.471533
133 1 0.442915 0.404848 0.321491
229 1 0.3621 0.325885 0.448879
38 1 0.648616 0.440358 0.394338
92 1 0.59761 0.355784 0.269191
251 1 0.501631 0.270027 0.417098
349 2 0.626732 0.320015 0.393876
316 2 0.343272 0.309711 0.319721
239 1 0.352278 0.482772 0.443668
41 1 0.454468 0.251008 0.261856
152 1 0.530407 0.433228 0.627053
159 1 0.494331 0.262256 0.711232
176 1 0.47182 0.301452 0.557243
210 1 0.386499 0.437707 0.585254
211 1 0.405007 0.409117 0.736906
150 1 0.638366 0.344262 0.519389
149 1 0.631484 0.32617 0.69426
178 1 0.341711 0.300097 0.633066
352 2 0.637725 0.487171 0.6651
257 1 0.567675 0.442824 0.774114
222 1 0.59176 0.309948 0.849497
227 1 0.465267 0.383721 0.881592
262 1 0.577306 0.475805 0.936207
1 1 0.398916 0.297996 0.985135
102 1 0.435294 0.547976 0.140282
98 1 0.424354 0.710266 0.130215
358 2 0.551265 0.608669 0.146458
13 1 0.58517 0.72799 0.150656
185 1 0.540944 0.50276 0.252554
334 2 0.516202 0.738216 0.0438721
351 2 0.337708 0.624438 0.178556
246 1 0.537264 0.551833 0.392891
252 1 0.410937 0.651283 0.418245
84 1 0.375613 0.540507 0.289632
219 1 0.544889 0.716218 0.385431
124 1 0.359028 0.701004 0.276679
107 1 0.494265 0.656513 0.255236
175 1 0.641673 0.626865 0.264609
338 2 0.613767 0.752881 0.485064
59 1 0.468605 0.567987 0.545814
103 1 0.395009 0.568219 0.68659
29 1 0.550222 0.580435 0.713079
318 2 0.476919 0.671189 0.650315
76 1 0.595425 0.649031 0.568887
197 1 0.639273 0.700002 0.710879
100 1 0.349438 0.72789 0.654362
86 1 0.470179 0.741389 0.52668
233 1 0.641028 0.499346 0.533955
108 1 0.62782 0.724335 0.990278
207 1 0.454986 0.543818 0.84407
40 1 0.463188 0.687116 0.781494
139 1 0.584804 0.630525 0.871948
23 1 0.371297 0.650764 0.913392
330 2 0.63328 0.580231 0.987186
339 2 0.339279 0.516733 0.90655
201 1 0.502724 0.608859 0.996201
95 1 0.529626 0.859401 0.081272
217 1 0.369665 0.851976 0.105589
206 1 0.639786 0.877731 0.199619
291 2 0.535315 0.945978 0.189856
28 1 0.413829 0.977 0.237677
87 1 0.497731 0.812301 0.237026
173 1 0.627446 1.00174 0.111326
199 1 0.412937 0.814091 0.377135
15 1 0.470355 0.9601 0.415638
153 1 0.599474 0.86059 0.360057
271 1 0.623391 1.00207 0.458271
341 2 0.645058 0.767072 0.273129
286 1 0.603413 0.927107 0.666575
16 1 0.401278 0.894177 0.543386
91 1 0.433435 0.952482 0.703496
129 1 0.53037 0.791784 0.662994
39 1 0.557102 0.861499 0.508388
245 1 0.329849 0.77894 0.984088
30 1 0.460865 0.846313 0.797754
65 1 0.597608 0.857245 0.919493
215 1 0.441741 0.928238 0.956075
347 2 0.575663 0.754833 0.815428
198 1 0.649045 0.85325 0.784684
248 1 0.515309 0.988406 0.835526
47 1 0.479449 0.756467 0.92502
315 2 0.671692 0.105103 0.231567
170 1 0.909299 0.0701968 0.0791777
18 1 0.768829 0.166442 0.161918
313 2 0.699167 0.24942 0.228797
81 1 0.761522 0.0143154 0.0408588
10 1 0.875774 0.0733359 0.233759
120 1 0.904404 0.234017 0.0901953
174 1 0.972232 0.148239 0.331775
183 1 0.857115 0.218497 0.409591
58 1 0.878316 0.0589174 0.411838
235 1 0.757793 0.13472 0.322085
340 2 0.738769 0.0739331 0.46511
70 1 0.692602 0.209033 0.456815
62 1 0.861975 0.240959 0.254109
230 1 0.986342 0.151629 0.485104
63 1 0.675256 0.0660406 0.593902
212 1 0.815361 0.141426 0.55302
125 1 0.831319 0.058218 0.689011
209 1 0.871526 0.210454 0.691102
234 1 0.697444 0.180118 0.7283
331 2 0.735557 0.0749774 0.93271
32 1 0.804095 0.120304 0.832671
208 1 0.972844 0.127347 0.799803
195 1 0.88017 0.247692 0.882337
66 1 0.712334 0.252012 0.910947
157 1 0.973019 0.167666 0.967676
138 1 0.892832 0.0293137 0.923963
228 1 0.668601 0.0153967 0.766702
249 1 0.807006 0.165099 0.99237
213 1 0.751173 0.46242 0.0764296
6 1 0.758833 0.336415 0.158755
22 1 0.894269 0.401628 0.101674
189 1 0.692257 0.471619 0.248258
290 2 0.714526 0.253492 0.0570617
24 1 0.811219 0.330038 -0.00411638
141 1 0.809397 0.473677 0.35027
205 1 0.783615 0.355295 0.467226
73 1 0.924174 0.420221 0.440702
266 1 0.746149 0.333235 0.314569
298 2 0.859726 0.342385 0.360984
79 1 0.9331 0.377278 0.260635
68 1 0.755737 0.42098 0.64167
45 1 0.917783 0.355304 0.709842
172 1 0.896231 0.274558 0.548137
324 2 0.873345 0.398739 0.585646
220 1 0.754369 0.271749 0.611435
104 1 1.00366 0.436286 0.580651
164 1 0.798427 0.501382 0.503242
75 1 0.82061 0.469119 0.805144
260 1 0.724564 0.404678 0.899059
169 1 0.781954 0.312831 0.769251
307 2 0.892479 0.365015 0.852489
137 1 0.865576 0.461554 0.956452
192 1 0.973909 0.336953 0.983105
106 1 0.972778 0.457862 0.828073
304 2 0.693243 0.407842 0.768661
299 2 0.9966 0.469852 0.960523
323 2 0.911436 0.691085 0.0559131
96 1 0.967459 0.537962 0.0645089
21 1 0.828341 0.599653 0.0625386
26 1 0.934048 0.647376 0.1872
336 2 0.745609 0.586961 0.197114
267 1 0.738714 0.718735 0.187088
236 1 0.848942 0.509014 0.203944
89 1 0.6699 0.616002 0.0975683
11 1 0.780646 0.734809 0.0116335
184 1 0.711056 0.582358 0.398183
61 1 0.810092 0.644584 0.305466
194 1 0.971877 0.700057 0.332233
19 1 0.891981 0.592523 0.432415
224 1 0.968846 0.532356 0.316977
46 1 0.705107 0.736971 0.380796
147 1 0.857742 0.747733 0.432686
355 2 0.873877 0.738443 0.259127
344 2 0.916252 0.529324 0.540296
134 1 0.872384 0.64831 0.581919
155 1 0.89815 0.50959 0.670989
302 2 0.915728 0.659534 0.691411
93 1 0.736925 0.577855 0.63728
78 1 0.798292 0.741997 0.707489
216 1 0.731458 0.678912 0.52066
294 2 0.84125 0.711736 0.894338
4 1 0.845261 0.619314 0.78589
180 1 0.929177 0.611208 0.922199
119 1 0.714725 0.70485 0.854421
242 1 0.750572 0.564587 0.937857
160 1 0.692638 0.5486 0.787477
187 1 0.996942 0.604481 0.784856
343 2 0.80844 0.820516 0.118897
283 1 0.863744 0.933245 0.141785
49 1 0.692307 0.858817 0.0494879
109 1 0.957006 0.797329 0.115608
127 1 0.741854 0.998626 0.205933
264 1 0.98355 0.931336 0.00951498
284 1 0.716268 0.873794 0.459508
327 2 0.861227 0.947931 0.280796
35 1 0.772024 0.849492 0.294033
31 1 0.878274 0.896807 0.425875
163 1 0.938869 0.848113 0.264215
17 1 0.75511 0.984104 0.363374
177 1 0.98323 0.987424 0.322341
282 1 0.922851 0.939046 0.622969
94 1 0.770226 0.906724 0.688756
97 1 0.684267 0.809031 0.59927
279 1 0.837638 0.820742 0.579603
306 2 0.896703 0.849712 0.715322
52 1 0.799991 0.972778 0.538839
360 2 0.681812 0.940634 0.559455
158 1 0.971718 0.755887 0.632436
305 2 0.947366 0.850869 0.525773
72 1 0.812359 0.850172 0.821888
268 1 0.932135 0.772483 0.961855
167 1 0.935145 0.973 0.784225
354 2 0.916188 0.886184 0.880874
113 1 0.731641 0.953479 0.896519
297 2 0.721866 0.816726 0.920915
322 2 0.80519 0.996711 0.808528
136 1 0.940333 0.753519 0.79638
285 1 0.833766 0.881916 0.989825
ITEM: TIMESTEP
20000000
ITEM: NUMBER OF ATOMS
360
ITEM: BOX BOUNDS pp pp pp
0.0000000000000000e+00 6.6943295008216896e+00
0.0000000000000000e+00 6.6943295008216896e+00
0.0000000000000000e+00 6.6943295008216896e+00
ITEM: ATOMS id type xs ys zs
265 1 0.187997 0.241224 0.15033
171 1 0.185901 0.108575 0.0421329
192 1 0.0663683 0.144027 0.162588
200 1 0.130526 0.0100015 0.208431
48 1 0.318168 0.159368 0.153506
272 1 0.0125022 0.0898779 0.0253912
360 2 0.308345 0.0693251 0.0284463
315 2 0.00990809 0.00862783 0.144091
202 1 0.091513 0.218416 0.00813967
258 1 0.274879 0.00372357 0.128978
237 1 0.207417 0.138528 0.262361
230 1 0.178698 0.169134 0.411609
332 2 0.0572449 0.0950562 0.481767
307 2 0.0793398 0.114766 0.285189
352 2 0.327075 0.220304 0.399095
283 1 0.335719 0.100938 0.443739
158 1 0.100135 0.0243014 0.377749
218 1 0.0639695 0.0984366 0.634313
62 1 0.0932336 0.21979 0.53942
2 1 0.216504 0.0818218 0.68485
130 1 0.257991 0.196702 0.558404
67 1 0.305656 0.204811 0.712977
7 1 0.180921 0.059986 0.537523
54 1 0.152776 0.210086 0.717163
303 2 0.198548 0.198436 0.935989
125 1 0.230691 0.133266 0.836448
186 1 0.0925302 0.0754849 0.885074
37 1 0.316617 0.197512 0.988276
44 1 0.0943313 0.231972 0.851934
296 2 0.00586331 0.163265 0.911964
325 2 0.111388 0.105197 0.763246
117 1 0.0671774 0.342792 0.0997947
224 1 0.199199 0.407083 0.191536
27 1 0.170763 0.471436 0.00981564
342 2 0.302755 0.270703 0.0876985
207 1 0.307481 0.401583 0.0720808
231 1 0.198925 0.319003 0.00415158
22 1 0.0866144 0.496602 0.141315
151 1 0.254693 0.31277 0.468306
172 1 0.239042 0.27939 0.307208
244 1 0.0911405 0.310032 0.407424
288 1 0.266074 0.4416 0.367617
299 2 0.151745 0.376116 0.30672
166 1 0.100484 0.48146 0.439226
19 1 0.0382851 0.416683 0.268555
132 1 0.0606159 0.265072 0.253432
204 1 0.165845 0.329159 0.620774
239 1 0.119331 0.489125 0.592558
121 1 0.246977 0.459261 0.679595
64 1 0.253524 0.457933 0.519084
183 1 0.0230094 0.364245 0.554169
88 1 0.326262 0.339154 0.595912
308 2 0.144364 0.373744 0.502104
99 1 0.0894511 0.369762 0.920417
278 1 0.23221 0.287699 0.839013
277 1 0.223245 0.462115 0.847592
83 1 0.0353439 0.488942 0.83294
357 2 0.312035 0.363161 0.763021
9 1 0.117646 0.38349 0.758191
236 1 0.144465 0.627476 0.0547842
60 1 0.243056 0.727512 0.153101
74 1 0.247416 0.560665 0.158699
163 1 0.10848 0.665164 0.197034
304 2 0.024017 0.678685 0.041532
311 2 0.32491 0.624988 0.0833351
294 2 0.000786478 0.736532 0.181524
318 2 0.027865 0.56559 0.248155
276 1 0.029706 0.539204 0.00929178
143 1 0.306033 0.588251 0.299813
194 1 0.086973 0.632809 0.349231
261 1 0.214828 0.601042 0.427803
226 1 0.200641 0.727918 0.300013
34 1 0.156434 0.520703 0.291613
347 2 0.332286 0.74489 0.260416
56 1 0.223996 0.626009 0.612595
61 1 0.0985501 0.732515 0.624457
321 2 0.175379 0.690368 0.516796
164 1 0.029606 0.601522 0.663698
16 1 0.198614 0.724386 0.740049
46 1 0.063855 0.612058 0.518798
211 1 0.151222 0.564786 0.746203
324 2 0.331155 0.556083 0.731125
245 1 0.10223 0.74752 0.954322
255 1 0.137903 0.582037 0.889137
103 1 0.0592182 0.678754 0.793379
323 2 0.183468 0.698276 0.876751
40 1 0.288051 0.617561 0.829537
26 1 0.257735 0.720817 0.988177
238 1 0.302819 0.555661 0.97601
225 1 0.127026 0.842343 0.185674
28 1 0.104122 0.954761 0.062064
123 1 0.213614 0.858239 0.0473526
87 1 0.289405 0.86307 0.190654
217 1 0.0185346 0.816994 0.0737794
302 2 0.148296 0.751531 0.0815359
17 1 0.0284608 0.786177 0.290112
80 1 0.160957 0.8766 0.343859
145 1 0.231149 0.763342 0.440125
292 2 0.0585124 0.929151 0.280288
282 1 0.249532 0.960248 0.437037
41 1 0.324239 0.862036 0.345952
216 1 0.0212924 0.894031 0.410045
148 1 0.285181 0.990152 0.285923
134 1 0.0720959 0.746816 0.449108
316 2 0.300566 0.855962 0.496482
118 1 0.143531 0.882658 0.510729
136 1 0.139595 0.949297 0.642049
280 1 0.236424 0.784898 0.585168
69 1 0.293142 0.940457 0.598903
297 2 0.16464 0.829632 0.684042
269 1 0.00402601 0.871658 0.646914
33 1 0.287058 0.854204 0.732339
110 1 0.0234115 0.981488 0.53741
214 1 0.0222136 0.987721 0.753031
240 1 0.0598149 0.909767 0.923075
190 1 0.198783 0.842824 0.889142
203 1 0.0858723 0.838763 0.781634
25 1 0.181234 0.971148 0.807785
348 2 0.306365 0.849695 0.959306
248 1 0.243145 0.987797 0.960633
222 1 0.434273 0.10867 0.0414014
20 1 0.422646 0.0203185 0.170308
262 1 0.572745 0.0682741 0.124396
144 1 0.49401 0.188663 0.188784
333 2 0.534368 0.189172 0.0605449
173 1 0.650427 0.202126 0.146549
140 1 0.514891 0.143384 0.362255
114 1 0.373137 0.148199 0.296972
344 2 0.501195 0.0818373 0.253564
343 2 0.612818 0.112046 0.434814
196 1 0.636917 0.0966699 0.269885
284 1 0.434747 0.0157963 0.351633
355 2 0.462519 0.248013 0.298786
212 1 0.53116 0.0999904 0.659591
58 1 0.371121 0.0856754 0.596414
161 1 0.334862 0.0262293 0.74947
149 1 0.5734 0.202796 0.547119
266 1 0.646581 0.0454501 0.543752
176 1 0.630395 0.240003 0.68474
15 1 0.405724 0.234486 0.499609
270 1 0.496326 0.0626848 0.508649
82 1 0.362183 0.0713729 0.904196
281 1 0.471287 0.22628 0.925585
260 1 0.600941 0.0979062 0.809267
188 1 0.605897 0.131129 0.971017
349 2 0.490099 0.0832024 0.899698
312 2 0.343184 0.221258 0.872789
256 1 0.437765 0.141924 0.800422
340 2 0.525755 0.219574 0.752452
115 1 0.564481 0.337901 0.156409
137 1 0.517046 0.42231 0.0489793
175 1 0.34197 0.444214 0.237342
358 2 0.41978 0.389689 0.133608
287 1 0.441965 0.278071 0.07329
96 1 0.382052 0.30015 0.206055
142 1 0.598244 0.29515 0.0155499
107 1 0.480612 0.407929 0.287517
223 1 0.380814 0.322786 0.364387
128 1 0.654268 0.416729 0.289354
229 1 0.52782 0.317105 0.425187
233 1 0.539821 0.482386 0.420258
345 2 0.402158 0.459843 0.362327
55 1 0.596404 0.259145 0.289071
111 1 0.412067 0.415943 0.485187
232 1 0.561321 0.364518 0.740107
205 1 0.542993 0.373058 0.573239
59 1 0.421346 0.42403 0.68654
328 2 0.647227 0.440273 0.655489
351 2 0.652709 0.312541 0.538105
182 1 0.452189 0.257818 0.647187
291 2 0.586073 0.464107 0.963333
169 1 0.412711 0.300118 0.794444
257 1 0.490139 0.381275 0.911807