ITEM: TIMESTEP
0
ITEM: NUMBER OF ATOMS
360
ITEM: BOX BOUNDS pp pp pp
0.0000000000000000e+00 6.6943295008216896e+00
0.0000000000000000e+00 6.6943295008216896e+00
0.0000000000000000e+00 6.6943295008216896e+00
ITEM: ATOMS id type xs ys zs
17 1 0.0285012 0.139733 0.198379
3 1 0.15578 0.105671 0.075418
6 1 0.0358903 0.187393 0.0432146
36 1 0.0136257 0.0230724 0.068954
35 1 0.180639 0.166047 0.223384
268 1 0.0626169 0.091695 0.345644
258 1 0.202119 0.148472 0.41356
43 1 0.209124 0.0195322 0.318087
276 1 0.0792717 0.15159 0.497163
208 1 0.151945 0.00836516 0.465509
80 1 0.0856099 0.036921 0.629132
200 1 0.0918028 0.216387 0.662466
301 2 0.183274 0.135068 0.588264
307 2 0.0389583 0.198919 0.800198
24 1 0.135465 0.094155 0.774294
176 1 0.153134 0.170228 0.922097
271 1 0.102847 0.0215338 0.927847
16 1 0.245197 0.0496472 0.978228
318 2 0.00884833 0.0496956 0.821792
297 2 0.243593 0.230847 0.967226
224 1 0.00373764 0.137135 0.908472
118 1 0.134321 0.412284 0.0552237
311 2 0.0468627 0.314703 0.0624147
250 1 0.0423895 0.291715 0.187086
90 1 0.0646984 0.455655 0.20159
140 1 0.218605 0.384704 0.180005
166 1 0.167489 0.258029 0.0729859
167 1 0.146826 0.391338 0.425975
330 2 0.0718576 0.280501 0.456336
342 2 0.136001 0.354321 0.2931
201 1 0.174291 0.492625 0.308494
58 1 0.241992 0.287455 0.335741
180 1 0.0920296 0.250443 0.341081
33 1 0.0353607 0.345516 0.564076
168 1 0.11114 0.456649 0.66333
310 2 0.139334 0.332952 0.677377
48 1 0.217765 0.430452 0.568908
316 2 0.0886356 0.46327 0.527561
86 1 0.0205676 0.33329 0.727325
171 1 0.195788 0.264784 0.535389
349 2 0.229524 0.483267 0.885832
117 1 0.206246 0.354903 0.908882
193 1 0.085642 0.418711 0.830188
79 1 0.0516439 0.29202 0.932028
132 1 0.148188 0.267727 0.792748
210 1 0.231565 0.431262 0.774002
211 1 0.047264 0.546914 0.0798976
182 1 0.143761 0.663678 0.0973048
320 2 0.0372243 0.736588 0.17563
108 1 0.204414 0.529756 0.157653
300 2 0.193301 0.538817 0.0303484
44 1 0.060864 0.611234 0.223722
120 1 0.239214 0.64829 0.247618
183 1 0.217554 0.564056 0.467516
100 1 0.0722427 0.533392 0.422326
119 1 0.128721 0.682295 0.450137
296 2 0.00597051 0.641166 0.466247
293 2 0.115782 0.614976 0.337253
209 1 0.237612 0.586074 0.630769
287 1 0.122008 0.68031 0.690091
84 1 0.0764543 0.600154 0.564926
76 1 2.61479e-05 0.549855 0.697434
243 1 0.0237384 0.747762 0.584658
94 1 0.200934 0.738634 0.568079
294 2 0.237698 0.708506 0.681647
195 1 0.111507 0.691562 0.953158
151 1 0.117561 0.522784 0.929855
350 2 0.102051 0.663754 0.823048
143 1 0.226753 0.703637 0.810387
114 1 0.142389 0.557301 0.772235
2 1 0.0394647 0.861903 0.12049
273 1 0.152579 0.954959 0.0755917
41 1 0.192148 0.798726 0.0215075
230 1 0.18721 0.781792 0.174841
355 2 0.101298 0.867277 0.236761
138 1 0.111165 0.989088 0.211258
202 1 0.244861 0.894394 0.243574
270 1 0.145158 0.778998 0.329007
319 2 0.192981 0.899561 0.390746
217 1 0.0764382 0.924621 0.357473
266 1 0.131634 0.834049 0.483215
332 2 0.0290967 0.795654 0.394146
184 1 0.097095 0.877337 0.620919
62 1 0.217234 0.825514 0.716388
31 1 0.227552 0.982272 0.694976
77 1 0.240735 0.918886 0.563961
298 2 0.00545846 0.954981 0.67323
302 2 0.077954 0.805017 0.740854
173 1 0.0448829 0.884328 0.956615
178 1 0.08982 0.924884 0.766732
97 1 0.172803 0.836273 0.868931
340 2 0.18658 0.986731 0.833824
346 2 0.182888 0.92173 0.963913
40 1 0.0258011 0.768948 0.864071
129 1 0.40363 0.124913 0.186802
357 2 0.453622 0.140227 0.0714232
281 1 0.297308 0.181449 0.0815408
12 1 0.36471 0.048574 0.0561777
206 1 0.253063 0.0354064 0.15983
47 1 0.344739 0.168872 0.321641
61 1 0.405036 0.0813524 0.430072
51 1 0.329643 0.223176 0.460093
23 1 0.3667 0.00881655 0.285314
153 1 0.482384 0.223271 0.458692
338 2 0.470973 0.0832758 0.284566
133 1 0.424212 0.136307 0.578803
277 1 0.367071 0.0572364 0.7077
263 1 0.41174 0.225713 0.700901
289 2 0.305965 0.200236 0.582679
282 1 0.289183 0.0751764 0.544112
146 1 0.25235 0.166778 0.69403
360 2 0.366968 0.0352764 0.925985
172 1 0.364118 0.173605 0.947367
262 1 0.276647 0.0949258 0.837641
212 1 0.459754 0.147117 0.839933
72 1 0.49854 0.0308656 0.960324
32 1 0.303835 0.242296 0.834032
9 1 0.369587 0.414482 0.120094
126 1 0.32924 0.279172 0.20447
323 2 0.279979 0.323776 0.0759571
313 2 0.458509 0.26623 0.219271
57 1 0.423148 0.263242 0.078552
246 1 0.274937 0.458135 0.00210337
196 1 0.406436 0.306638 0.338639
141 1 0.299125 0.398839 0.436506
295 2 0.426888 0.437777 0.353105
248 1 0.345561 0.427663 0.257055
275 1 0.480131 0.382106 0.457784
198 1 0.333322 0.453048 0.666682
284 1 0.475175 0.426717 0.605955
91 1 0.273025 0.318021 0.682761
189 1 0.371357 0.309302 0.576254
358 2 0.491041 0.25309 0.587445
339 2 0.324761 0.375696 0.853546
92 1 0.334264 0.318953 0.962278
197 1 0.461632 0.288137 0.890088
169 1 0.368844 0.490196 0.880294
191 1 0.457582 0.423063 0.996368
21 1 0.425266 0.383997 0.770718
333 2 0.418715 0.685127 0.102466
251 1 0.379832 0.604286 0.192548
286 1 0.296101 0.659254 0.0663066
260 1 0.395548 0.57315 0.0157576
37 1 0.392574 0.712809 0.333095
265 1 0.366012 0.550697 0.378678
291 2 0.273753 0.656757 0.370037
331 2 0.462343 0.656426 0.434389
353 2 0.479809 0.633111 0.292655
74 1 0.339917 0.672172 0.48541
59 1 0.489553 0.554486 0.49175
45 1 0.478972 0.515656 0.265551
222 1 0.410773 0.610344 0.636829
274 1 0.369948 0.717443 0.719235
121 1 0.484558 0.707701 0.543578
101 1 0.340773 0.513564 0.52886
1 1 0.383925 0.656376 0.86935
207 1 0.459035 0.708855 0.987962
229 1 0.474934 0.520638 0.754015
264 1 0.304225 0.576512 0.759841
283 1 0.255244 0.606193 0.928882
89 1 0.381904 0.907298 0.158297
303 2 0.453084 0.947659 0.0515807
308 2 0.262667 0.872427 0.118175
267 1 0.316484 0.912251 0.0212663
317 2 0.369315 0.801067 0.0433986
102 1 0.479387 0.820252 0.0981942
259 1 0.34032 0.75911 0.178301
232 1 0.431464 0.810802 0.443965
314 2 0.268458 0.770467 0.287754
227 1 0.382519 0.855215 0.298518
50 1 0.310545 0.951449 0.425773
28 1 0.266405 0.796254 0.422563
344 2 0.474025 0.962937 0.683773
49 1 0.372247 0.882082 0.70873
152 1 0.406886 0.977932 0.556208
134 1 0.341728 0.792455 0.57325
327 2 0.483572 0.764834 0.664723
7 1 0.303963 0.931395 0.851368
325 2 0.310955 0.812853 0.794693
52 1 0.318728 0.782987 0.930245
177 1 0.45104 0.975322 0.818263
103 1 0.439033 0.875235 0.94359
225 1 0.467919 0.806161 0.811879
269 1 0.635226 0.0820697 0.0639648
352 2 0.693279 0.147007 0.218682
345 2 0.647335 0.220261 0.0605674
186 1 0.556793 0.180925 0.145545
242 1 0.601374 0.0675931 0.248562
223 1 0.507268 0.0290809 0.117593
326 2 0.683804 0.0391561 0.332227
213 1 0.673828 0.204419 0.337264
15 1 0.580951 0.0900931 0.39925
220 1 0.510051 0.198227 0.304993
54 1 0.640451 0.241154 0.477831
95 1 0.739322 0.0998049 0.420458
69 1 0.680077 0.131662 0.706892
238 1 0.587743 0.170184 0.602197
226 1 0.547479 0.0140262 0.559258
216 1 0.515887 0.0770395 0.707685
78 1 0.73697 0.0319049 0.604099
66 1 0.734721 0.233853 0.604181
359 2 0.645724 0.0969988 0.524752
161 1 0.651033 0.0170647 0.925738
348 2 0.72838 0.0829878 0.830673
155 1 0.616131 0.180755 0.842479
347 2 0.57745 0.0476522 0.834401
159 1 0.736199 0.135764 0.958973
136 1 0.544916 0.175467 0.980077
96 1 0.660396 0.287012 0.198901
122 1 0.67913 0.40318 0.0981188
328 2 0.609983 0.458613 0.184974
199 1 0.532393 0.352449 0.153034
73 1 0.500043 0.49835 0.118007
109 1 0.581348 0.318006 0.00313287
105 1 0.600715 0.485865 0.000334722
139 1 0.70255 0.448228 0.268301
42 1 0.69926 0.394777 0.41821
19 1 0.566025 0.361742 0.321787
83 1 0.592018 0.320398 0.599783
149 1 0.611422 0.44536 0.702829
192 1 0.615173 0.473774 0.534675
154 1 0.705229 0.315777 0.746309
181 1 0.730886 0.393792 0.605592
56 1 0.556646 0.264114 0.738893
65 1 0.702239 0.405992 0.911008
280 1 0.557215 0.401652 0.855876
341 2 0.65682 0.288235 0.881477
38 1 0.742784 0.280716 0.991382
256 1 0.575236 0.628928 0.0650124
309 2 0.660207 0.697965 0.149558
53 1 0.704035 0.547726 0.122605
158 1 0.510911 0.693406 0.19099
249 1 0.599132 0.512151 0.389386
98 1 0.572491 0.660737 0.377825
241 1 0.728222 0.585721 0.350548
67 1 0.685568 0.74842 0.309819
188 1 0.614955 0.590675 0.252064
187 1 0.557288 0.582283 0.632655
255 1 0.640024 0.627167 0.521052
137 1 0.729702 0.54888 0.657976
231 1 0.688835 0.677868 0.744704
127 1 0.606836 0.742871 0.626469
170 1 0.5925 0.731479 0.879857
175 1 0.677826 0.613383 0.938241
253 1 0.656945 0.533336 0.818458
75 1 0.505641 0.563263 0.90867
157 1 0.516638 0.66781 0.75788
351 2 0.626445 0.958279 0.165785
240 1 0.582359 0.919415 0.0405738
13 1 0.602668 0.820492 0.184019
218 1 0.667795 0.75274 0.0286149
4 1 0.737549 0.883169 0.127254
215 1 0.513121 0.936644 0.236091
123 1 0.681678 0.928705 0.273483
160 1 0.53436 0.793116 0.319925
335 2 0.637239 0.86555 0.361039
234 1 0.653221 0.959095 0.462398
85 1 0.616579 0.80787 0.47419
27 1 0.503923 0.946236 0.413986
148 1 0.669404 0.892661 0.600362
257 1 0.563149 0.873556 0.721014
324 2 0.734227 0.806471 0.660075
356 2 0.600164 0.979942 0.672192
5 1 0.505186 0.869432 0.578733
111 1 0.699399 0.833908 0.792736
174 1 0.57026 0.893093 0.879804
26 1 0.695275 0.875054 0.947287
329 2 0.548576 0.806067 0.979109
312 2 0.596047 0.76667 0.753992
99 1 0.659272 0.983848 0.773842
128 1 0.759673 0.170012 0.11621
8 1 0.896768 0.0808342 0.156602
14 1 0.881259 0.133263 0.0130121
203 1 0.903217 0.232345 0.162665
147 1 0.778198 0.00349962 0.0209313
163 1 0.754625 0.0348151 0.179445
194 1 0.908615 0.119423 0.412458
179 1 0.823398 0.0071858 0.337173
343 2 0.941989 0.0832953 0.29014
10 1 0.818779 0.165505 0.270314
145 1 0.94311 0.236897 0.317988
228 1 0.998637 0.00447176 0.490355
233 1 0.792026 0.244261 0.450944
125 1 0.8974 0.0205799 0.620734
236 1 0.827982 0.142664 0.700129
304 2 0.982763 0.113423 0.567499
292 2 0.824398 0.0319921 0.744414
235 1 0.853201 0.155949 0.554707
131 1 0.947042 0.234948 0.623699
104 1 0.975746 0.123297 0.720551
205 1 0.873471 0.0915488 0.850672
290 2 0.872211 0.213378 0.923469
46 1 0.764523 0.21811 0.826043
261 1 0.914845 0.237514 0.798981
245 1 0.950151 0.401284 0.108487
214 1 0.903906 0.289875 0.0197654
11 1 0.795324 0.33671 0.134696
64 1 0.811113 0.439738 0.0395752
239 1 0.834844 0.49601 0.199655
82 1 0.792204 0.314173 0.302566
71 1 0.842129 0.452754 0.382301
113 1 0.991921 0.381176 0.406169
55 1 0.929654 0.386974 0.25903
30 1 0.94874 0.253474 0.474733
150 1 0.85857 0.367908 0.527311
336 2 0.984302 0.433034 0.655135
279 1 0.871465 0.486377 0.647603
285 1 0.958818 0.487219 0.515143
130 1 0.867646 0.338483 0.69076
88 1 0.926621 0.448417 0.785804
116 1 0.847473 0.355986 0.88399
315 2 0.97241 0.340391 0.846387
252 1 0.972342 0.457452 0.950012
25 1 0.773848 0.451478 0.76513
81 1 0.77053 0.654792 0.218556
322 2 0.956001 0.517785 0.168092
278 1 0.905075 0.557602 0.0575801
20 1 0.92268 0.633548 0.191359
87 1 0.792606 0.65035 0.0351077
18 1 0.996779 0.704283 0.062348
107 1 0.967644 0.522771 0.313011
165 1 0.886983 0.59241 0.439607
68 1 0.839706 0.74056 0.33369
164 1 0.984384 0.675044 0.343213
321 2 0.851168 0.584493 0.306762
63 1 0.908182 0.735337 0.479509
185 1 0.753977 0.707917 0.452413
144 1 0.908319 0.634462 0.602737
190 1 0.764722 0.688005 0.603267
272 1 0.978395 0.701891 0.724816
22 1 0.774766 0.502583 0.519013
299 2 0.908219 0.718505 0.819409
162 1 0.905478 0.703505 0.946934
288 1 0.784941 0.716215 0.864278
115 1 0.848219 0.529632 0.905685
142 1 0.843207 0.599417 0.764488
306 2 0.996031 0.596682 0.972802
124 1 0.975907 0.610907 0.851559
237 1 0.886087 0.772206 0.150571
34 1 0.894973 0.927601 0.0995627
334 2 0.940439 0.831835 0.0136162
156 1 0.957644 0.959425 0.242917
106 1 0.82003 0.814235 0.0028979
112 1 0.924374 0.865373 0.376833
337 2 0.951151 0.989328 0.374207
254 1 0.991661 0.801165 0.265211
219 1 0.827877 0.985954 0.487771
204 1 0.826785 0.874772 0.250834
221 1 0.759548 0.866218 0.408717
93 1 0.964188 0.844342 0.701559
39 1 0.952091 0.877846 0.554852
60 1 0.805406 0.905126 0.703945
70 1 0.801693 0.835686 0.556056
354 2 0.90562 0.772203 0.602064
110 1 0.837445 0.755853 0.715908
247 1 0.925196 0.971752 0.775827
29 1 0.869763 0.843861 0.841036
244 1 0.778315 0.964332 0.855076
135 1 0.919748 0.987437 0.950711
305 2 0.988921 0.889719 0.838457
ITEM: TIMESTEP
100000
ITEM: NUMBER OF ATOMS
360
ITEM: BOX BOUNDS pp pp pp
0.0000000000000000e+00 6.6943295008216896e+00
0.0000000000000000e+00 6.6943295008216896e+00
0.0000000000000000e+00 6.6943295008216896e+00
ITEM: ATOMS id type xs ys zs
17 1 0.0862748 0.059287 0.132203
166 1 0.181097 0.201536 0.0739307
343 2 0.106756 0.17354 0.194597
43 1 0.246904 0.13976 0.223467
355 2 0.167235 0.0628991 0.0426249
203 1 0.0401959 0.236958 0.0979726
77 1 0.126975 0.133642 0.486517
145 1 0.0927146 0.242788 0.35368
138 1 0.0999127 0.0926133 0.288
342 2 0.183006 0.160088 0.356606
319 2 0.146962 0.00895889 0.438196
184 1 0.0357997 0.00719177 0.497027
282 1 0.16051 0.0168334 0.587942
304 2 0.0480327 0.156732 0.582991
31 1 0.125712 0.101709 0.712501
208 1 0.135242 0.231374 0.617565
344 2 0.229792 0.149279 0.65208
307 2 0.0718846 0.238851 0.736551
16 1 0.005005 0.0313611 0.640515
3 1 0.227939 0.027135 0.938387
262 1 0.197858 0.176041 0.922562
36 1 0.0770994 0.0174748 0.86463
104 1 0.062261 0.176285 0.842271
297 2 0.186989 0.0436171 0.809124
6 1 0.0726414 0.124024 0.992848
24 1 0.20234 0.21473 0.769534
245 1 0.0387094 0.425298 0.170826
118 1 0.135801 0.353186 0.0827268
180 1 0.1821 0.273691 0.210889
211 1 0.213277 0.431811 0.218078
326 2 0.0449771 0.297657 0.220456
113 1 0.0734331 0.403935 0.318921
33 1 0.156802 0.315123 0.482689
200 1 0.0518418 0.413771 0.487075
167 1 0.232572 0.369729 0.353781
80 1 0.0120792 0.257091 0.490244
210 1 0.127462 0.360442 0.72215
168 1 0.20253 0.451201 0.557933
301 2 0.113061 0.348938 0.596401
131 1 0.0556606 0.476506 0.625546
79 1 0.134165 0.330178 0.871538
349 2 0.183879 0.456632 0.815744
252 1 0.179375 0.46401 0.950431
143 1 0.0546079 0.463779 0.819126
214 1 0.0333291 0.425127 0.97534
310 2 0.111017 0.253943 0.981639
230 1 0.165645 0.675639 0.109847
90 1 0.117882 0.552997 0.235591
254 1 0.00776212 0.564492 0.0842702
18 1 0.0215283 0.706784 0.0164724
151 1 0.150964 0.508357 0.0924061
2 1 0.0204038 0.694826 0.165006
293 2 0.119099 0.632246 0.384044
44 1 0.202909 0.672337 0.284305
164 1 0.0268616 0.550095 0.364593
141 1 0.175537 0.506371 0.399838
270 1 0.0486214 0.69593 0.312745
209 1 0.100014 0.607684 0.511256
76 1 0.114642 0.633991 0.668894
198 1 0.192364 0.506038 0.693352
222 1 0.180972 0.729752 0.564189
86 1 0.0355592 0.579899 0.937641
114 1 0.150089 0.585939 0.820549
334 2 0.0764161 0.688076 0.780304
195 1 0.128545 0.742739 0.877025
246 1 0.210511 0.616815 0.979104
217 1 0.0798776 0.828733 0.11327
273 1 0.215129 0.908654 0.10981
346 2 0.0666361 0.944717 0.200551
305 2 0.233961 0.790501 0.137707
41 1 0.209266 0.773294 0.0113999
35 1 0.211344 0.991395 0.246189
34 1 0.0924943 0.960206 0.00884028
119 1 0.132315 0.763211 0.415242
258 1 0.0829838 0.95802 0.340001
50 1 0.224674 0.897303 0.372046
266 1 0.00420069 0.835638 0.253426
28 1 0.15914 0.820051 0.248068
243 1 0.0155729 0.759645 0.536493
287 1 0.0694122 0.862684 0.647535
94 1 0.147726 0.774756 0.732504
183 1 0.125085 0.886229 0.508494
212 1 0.153676 0.948364 0.749928
134 1 0.232437 0.862507 0.627965
97 1 0.186934 0.885787 0.900241
178 1 0.0451748 0.872697 0.827799
298 2 0.0887614 0.812677 0.98205
129 1 0.482473 0.0924018 0.179507
281 1 0.353494 0.197166 0.131993
271 1 0.291808 0.0544345 0.0975867
340 2 0.414168 0.0999709 0.0668162
206 1 0.360013 0.0148715 0.240493
196 1 0.409798 0.0805646 0.429986
47 1 0.386842 0.165282 0.295854
146 1 0.285631 0.224643 0.406456
58 1 0.254339 0.0656831 0.379575
152 1 0.278209 0.121679 0.544225
132 1 0.341594 0.189715 0.683142
133 1 0.407152 0.0510812 0.589084
177 1 0.280961 0.0316325 0.688197
265 1 0.401072 0.225603 0.527694
21 1 0.431857 0.0616724 0.750642
155 1 0.307291 0.108492 0.818832
176 1 0.330706 0.156628 0.982804
72 1 0.379521 0.01838 0.959274
56 1 0.480782 0.206131 0.769028
360 2 0.438931 0.212071 0.906153
92 1 0.387074 0.463755 0.198335
126 1 0.468621 0.324995 0.128214
117 1 0.292884 0.352008 0.116517
197 1 0.44829 0.45742 0.0509584
193 1 0.294652 0.488529 0.0383709
300 2 0.451454 0.253018 0.224564
248 1 0.408689 0.423877 0.343012
139 1 0.423683 0.280647 0.380325
189 1 0.312044 0.362364 0.482684
353 2 0.486869 0.500812 0.276712
140 1 0.332865 0.311983 0.261832
284 1 0.419581 0.311133 0.646981
48 1 0.356778 0.467073 0.602263
275 1 0.470624 0.379246 0.505485
339 2 0.276614 0.255976 0.541259
295 2 0.485816 0.444031 0.634462
171 1 0.259156 0.315907 0.646633
260 1 0.358768 0.429273 0.915338
277 1 0.335683 0.274517 0.835104
32 1 0.400336 0.294896 0.986685
109 1 0.486045 0.362448 0.844223
91 1 0.296999 0.403188 0.762705
169 1 0.253056 0.309254 0.972377
229 1 0.434616 0.483749 0.753195
303 2 0.387001 0.561207 0.0984063
259 1 0.32288 0.678158 0.0736684
108 1 0.275605 0.57893 0.163105
256 1 0.422199 0.611013 0.232063
158 1 0.464701 0.728974 0.131408
202 1 0.319501 0.721648 0.216288
251 1 0.283179 0.542626 0.310559
37 1 0.438507 0.576524 0.379633
201 1 0.324371 0.509112 0.45889
101 1 0.263923 0.662961 0.428461
1 1 0.403024 0.601131 0.656909
149 1 0.479632 0.525546 0.536503
294 2 0.322129 0.528227 0.704845
264 1 0.257327 0.598174 0.575707
52 1 0.251603 0.651093 0.73634
350 2 0.391258 0.719453 0.729859
157 1 0.402263 0.652332 0.507019
182 1 0.285187 0.716519 0.890803
283 1 0.289968 0.53879 0.825199
75 1 0.422563 0.633804 0.81602
286 1 0.380503 0.59762 0.952126
253 1 0.445471 0.742366 0.952677
23 1 0.481299 0.891574 0.232662
89 1 0.350825 0.841364 0.0906687
103 1 0.436818 0.975892 0.109627
227 1 0.313616 0.872457 0.247231
327 2 0.290391 0.931163 0.0118273
308 2 0.480588 0.827459 0.035595
61 1 0.375874 0.927135 0.387925
232 1 0.298519 0.804917 0.478576
160 1 0.444736 0.810407 0.491172
314 2 0.270239 0.777263 0.328139
15 1 0.492282 0.965968 0.494451
120 1 0.393032 0.753073 0.348953
49 1 0.474956 0.77319 0.650222
27 1 0.389002 0.921706 0.686018
338 2 0.392697 0.908437 0.565029
51 1 0.27427 0.973741 0.505647
121 1 0.325739 0.751653 0.61885
225 1 0.308317 0.955031 0.82204
7 1 0.341885 0.85398 0.921095
274 1 0.459075 0.825978 0.799113
358 2 0.423669 0.935282 0.862581
267 1 0.303395 0.812088 0.753971
128 1 0.609325 0.0691311 0.0960838
57 1 0.65829 0.236041 0.00682137
172 1 0.604799 0.222653 0.163539
136 1 0.500389 0.189575 0.0292311
223 1 0.744978 0.144232 0.140549
341 2 0.527547 0.00405698 0.0125443
234 1 0.612127 0.0423415 0.427656
263 1 0.5271 0.178373 0.455879
153 1 0.702224 0.161149 0.380974
45 1 0.560683 0.193574 0.311375
240 1 0.639996 0.0616001 0.253216
242 1 0.505938 0.018008 0.327922
296 2 0.69235 0.185394 0.253836
238 1 0.649786 0.200728 0.692914
335 2 0.541893 0.0847184 0.546342
54 1 0.657339 0.152118 0.544868
226 1 0.58204 0.0600711 0.667853
348 2 0.706736 0.0773748 0.675127
83 1 0.518526 0.185261 0.61309
290 2 0.630273 0.131405 0.949862
38 1 0.584314 0.222202 0.877531
159 1 0.512334 0.0915597 0.910761
10 1 0.668268 0.0863324 0.802455
163 1 0.740652 0.0988494 0.995711
96 1 0.650409 0.374607 0.111095
323 2 0.722902 0.282605 0.165456
122 1 0.632301 0.489252 0.0134907
9 1 0.55523 0.462452 0.39178
220 1 0.676251 0.308166 0.283679
328 2 0.668182 0.426783 0.436915
188 1 0.659391 0.459702 0.249521
19 1 0.607947 0.301252 0.429065
199 1 0.528916 0.362533 0.265297
99 1 0.686463 0.296539 0.56546
181 1 0.573866 0.337567 0.673648
150 1 0.598946 0.436805 0.55645
279 1 0.707881 0.420886 0.664111
313 2 0.542707 0.275246 0.530319
65 1 0.610928 0.453869 0.782351
154 1 0.689209 0.310275 0.82036
116 1 0.731342 0.381059 0.948076
191 1 0.550651 0.355054 0.986243
292 2 0.679307 0.478046 0.892224
170 1 0.517287 0.616357 0.0312764
239 1 0.745476 0.53384 0.126562
321 2 0.647304 0.597116 0.0464992
13 1 0.658308 0.668947 0.161271
333 2 0.533125 0.631584 0.201666
87 1 0.741569 0.682536 0.0224168
53 1 0.550526 0.511294 0.153825
73 1 0.56242 0.706621 0.416328
249 1 0.700835 0.568821 0.419019
309 2 0.671376 0.685303 0.343961
218 1 0.582623 0.589895 0.305996
81 1 0.738164 0.607362 0.273234
291 2 0.587307 0.564446 0.478542
255 1 0.557824 0.673523 0.573851
192 1 0.68542 0.560054 0.576006
190 1 0.557178 0.551142 0.66492
127 1 0.680583 0.720938 0.65635
98 1 0.690834 0.707595 0.508956
111 1 0.690345 0.588972 0.734716
280 1 0.509524 0.506736 0.899851
105 1 0.634107 0.613166 0.91071
336 2 0.566005 0.573341 0.803959
299 2 0.678057 0.694705 0.806163
312 2 0.511333 0.646266 0.90122
351 2 0.735362 0.740665 0.917661
187 1 0.55628 0.686484 0.759907
106 1 0.748605 0.827823 0.109198
317 2 0.635088 0.809238 0.165773
329 2 0.685836 0.962657 0.0439771
12 1 0.586154 0.910006 0.091429
179 1 0.73522 0.987673 0.154191
289 2 0.555199 0.994031 0.193386
269 1 0.603166 0.751478 0.0516126
331 2 0.627868 0.926487 0.451197
67 1 0.675769 0.802543 0.387511
215 1 0.532514 0.856968 0.373566
204 1 0.746431 0.766667 0.255238
221 1 0.731683 0.954562 0.367426
59 1 0.576315 0.750045 0.265114
102 1 0.630417 0.900782 0.259504
85 1 0.592374 0.821529 0.5323
356 2 0.663934 0.868978 0.626493
5 1 0.530397 0.922339 0.639095
257 1 0.605233 0.831518 0.734241
60 1 0.697689 0.951684 0.72874
148 1 0.656217 0.983246 0.562671
216 1 0.547107 0.962517 0.799808
347 2 0.642423 0.898778 0.848389
161 1 0.746441 0.810745 0.815147
26 1 0.594561 0.767099 0.883676
147 1 0.686092 0.853272 0.966213
207 1 0.52177 0.903108 0.936998
174 1 0.631458 1.00063 0.931442
8 1 0.901608 0.161114 0.0288069
352 2 0.893124 0.204655 0.149625
194 1 0.878411 0.0615784 0.133983
337 2 0.996163 0.120439 0.0997326
250 1 0.978421 0.191352 0.243156
135 1 0.960303 0.0253705 0.00762256
30 1 0.797337 0.0845671 0.272285
235 1 0.850899 0.180202 0.393447
186 1 0.819305 0.23063 0.253544
219 1 0.778743 0.0768053 0.479831
39 1 0.964384 0.0334138 0.254437
359 2 0.750916 0.206451 0.492072
276 1 0.997076 0.114069 0.383818
78 1 0.79729 0.161972 0.61193
228 1 0.956107 0.185022 0.695177
93 1 0.927321 0.1267 0.529856
125 1 0.813384 0.20322 0.761227
224 1 0.919936 0.133827 0.867747
357 2 0.842819 0.0487223 0.937921
14 1 0.796876 0.217104 0.913607
325 2 0.997862 0.0882074 0.766106
247 1 0.833079 0.0440096 0.750296
20 1 0.890911 0.466981 0.113577
311 2 0.977706 0.367299 0.0681162
11 1 0.813069 0.278505 0.0705235
82 1 0.927885 0.319171 0.182999
55 1 0.785658 0.39125 0.19231
345 2 0.77272 0.429176 0.0641675
330 2 0.827276 0.350738 0.307094
241 1 0.765868 0.45385 0.356432
213 1 0.949935 0.306166 0.347099
100 1 0.902749 0.4489 0.424883
233 1 0.925763 0.446273 0.268554
42 1 0.763496 0.307147 0.420278
66 1 0.919143 0.459026 0.58121
69 1 0.838407 0.3268 0.672293
95 1 0.863908 0.284268 0.540194
137 1 0.91507 0.444931 0.737618
107 1 0.770836 0.427535 0.51663
236 1 0.993976 0.329553 0.650617
64 1 0.87358 0.391885 0.983568
46 1 0.844242 0.342127 0.841823
261 1 0.978768 0.279968 0.957075
315 2 0.943996 0.416265 0.870854
25 1 0.774474 0.465386 0.799225
130 1 0.989436 0.307087 0.802159
278 1 0.879368 0.607528 0.171779
162 1 0.885709 0.638629 0.0189742
332 2 0.786151 0.698703 0.146491
322 2 0.818109 0.511984 0.231574
22 1 0.78435 0.690201 0.399101
84 1 0.958556 0.67018 0.424224
165 1 0.868366 0.573732 0.334261
71 1 0.828764 0.583651 0.50034
112 1 0.902807 0.725017 0.288833
316 2 0.992475 0.541308 0.490675
320 2 0.981427 0.606305 0.256873
144 1 0.819358 0.541193 0.669165
285 1 0.960658 0.630851 0.591368
88 1 0.978879 0.588792 0.743001
354 2 0.779556 0.650762 0.593559
272 1 0.842191 0.698769 0.686759
68 1 0.854785 0.740028 0.531795
324 2 0.856213 0.595744 0.77108
231 1 0.788401 0.652778 0.852858
124 1 0.953215 0.696015 0.874929
115 1 0.90129 0.538682 0.867313
175 1 0.788552 0.52226 0.975222
306 2 0.913918 0.518988 0.990457
4 1 0.824155 0.952913 0.0222814
268 1 0.962151 0.926414 0.124118
237 1 0.894458 0.778378 0.137485
123 1 0.846034 0.820886 0.391797
63 1 0.891464 0.994488 0.414159
74 1 0.99775 0.8508 0.41137
156 1 0.841514 0.906329 0.261336
142 1 0.929079 0.927241 0.729603
110 1 0.791392 0.851312 0.657672
40 1 0.91094 0.912654 0.536363
302 2 0.926274 0.816407 0.60756
185 1 0.751951 0.873898 0.511715
62 1 0.984891 0.756714 0.726964
70 1 0.806085 0.989643 0.61765
29 1 0.893172 0.825783 0.829198
244 1 0.761069 0.948147 0.881378
288 1 0.837234 0.799789 0.970426
205 1 0.923725 0.980761 0.866719
173 1 0.973715 0.87264 0.96641
318 2 0.810553 0.916028 0.7672
ITEM: TIMESTEP
200000
ITEM: NUMBER OF ATOMS
360
ITEM: BOX BOUNDS pp pp pp
0.0000000000000000e+00 6.6943295008216896e+00
0.0000000000000000e+00 6.6943295008216896e+00
0.0000000000000000e+00 6.6943295008216896e+00
ITEM: ATOMS id type xs ys zs
17 1 0.152665 0.181333 0.168115
250 1 0.039703 0.0659313 0.156123
203 1 0.015271 0.236638 0.0925337
206 1 0.20057 0.0277987 0.159327
271 1 0.236651 0.0701904 0.0168572
355 2 0.172208 0.174731 0.0313453
298 2 0.113073 0.00392272 0.0655728
145 1 0.0159437 0.200659 0.248944
304 2 0.0854767 0.100566 0.450422
180 1 0.119026 0.100435 0.303775
77 1 0.220219 0.108381 0.429616
326 2 0.202982 0.203163 0.309639
141 1 0.105594 0.222069 0.398992
208 1 0.10958 0.147919 0.567997
212 1 0.0842394 0.118907 0.723997
344 2 0.169907 0.0600271 0.642333
31 1 0.0328084 0.000650651 0.632436
184 1 0.148274 0.0017361 0.536464
146 1 0.210186 0.246968 0.52812
352 2 0.0164826 0.235471 0.500839
262 1 0.154506 0.115087 0.879653
224 1 0.0189288 0.0213672 0.852212
327 2 0.244992 0.0216679 0.852065
6 1 0.00155279 0.17997 0.863262
24 1 0.11916 0.250253 0.937068
36 1 0.0594912 0.122359 0.99728
245 1 0.0250646 0.37352 0.187096
117 1 0.15553 0.309899 0.0844911
254 1 0.208183 0.419881 0.164425
79 1 0.0276827 0.364372 0.016544
320 2 0.0945134 0.466047 0.121878
33 1 0.130327 0.38143 0.439945
211 1 0.130211 0.298704 0.26806
233 1 0.108838 0.471299 0.261478
101 1 0.236555 0.409722 0.320916
80 1 0.00741923 0.347699 0.344084
243 1 0.215634 0.499733 0.433879
293 2 0.0958138 0.497747 0.498666
200 1 0.0575856 0.312724 0.593334
168 1 0.130354 0.383236 0.739802
201 1 0.183723 0.397708 0.579779
88 1 0.0596881 0.483898 0.627549
155 1 0.163308 0.251137 0.673319
198 1 0.161341 0.392868 0.891735
91 1 0.219255 0.265977 0.813591
306 2 0.0157428 0.453306 0.928057
210 1 0.0201735 0.332387 0.858676
307 2 0.088906 0.249982 0.803551
264 1 0.24098 0.489285 0.75269
86 1 0.069467 0.499055 0.816217
151 1 0.214213 0.571396 0.0966826
18 1 0.083309 0.602924 0.187897
270 1 0.110253 0.646234 0.0221562
90 1 0.2309 0.575547 0.249947
44 1 0.135319 0.6198 0.362172
41 1 0.23459 0.721869 0.42225
50 1 0.0801251 0.733727 0.436394
68 1 0.0215649 0.516839 0.387004
266 1 0.0124581 0.712288 0.301344
259 1 0.188409 0.730319 0.269182
76 1 0.137481 0.595469 0.699607
134 1 0.150173 0.623593 0.516116
183 1 0.180964 0.742938 0.60348
74 1 0.0309305 0.720486 0.594069
124 1 0.164281 0.619312 0.85356
177 1 0.15073 0.750045 0.767253
214 1 0.00873713 0.597777 0.919458
334 2 0.0537326 0.672627 0.795434
2 1 0.0119091 0.740806 0.908382
267 1 0.178545 0.746575 0.916886
252 1 0.120838 0.504822 0.987867
35 1 0.0763858 0.918715 0.152075
58 1 0.200586 0.874027 0.203606
346 2 0.0912944 0.800594 0.223187
268 1 0.0374609 0.757501 0.126052
217 1 0.209591 0.755698 0.111721
237 1 0.0812486 0.849384 0.00323947
195 1 0.243136 0.90837 0.0541983
246 1 0.135425 0.855123 0.3407
63 1 0.0691498 0.977599 0.395663
138 1 0.219186 0.991276 0.327499
258 1 0.153689 0.85717 0.493264
343 2 0.0769747 0.986034 0.258115
354 2 0.0389533 0.937868 0.517001
282 1 0.101318 0.866181 0.63455
319 2 0.233696 0.919971 0.594219
97 1 0.160836 0.966123 0.741044
297 2 0.0333225 0.937785 0.742287
173 1 0.103527 0.865278 0.843081
34 1 0.144789 0.974757 0.934821
129 1 0.377165 0.048409 0.0990266
342 2 0.497663 0.0816442 0.0967074
331 2 0.374754 0.201559 0.201195
43 1 0.295583 0.178592 0.111029
242 1 0.458685 0.196041 0.0989607
45 1 0.455862 0.106115 0.2328
340 2 0.35043 0.158788 0.00313261
89 1 0.403544 0.0625678 0.374525
140 1 0.403882 0.224221 0.340357
265 1 0.386848 0.185223 0.489066
47 1 0.295678 0.119276 0.263223
263 1 0.410736 0.0430836 0.536324
132 1 0.398278 0.133344 0.677177
358 2 0.428193 0.0152237 0.663753
51 1 0.280485 0.111892 0.568154
176 1 0.251072 0.135012 0.736761
181 1 0.48136 0.238388 0.596016
136 1 0.458546 0.100508 0.968951
169 1 0.311523 0.131892 0.880279
341 2 0.433212 0.138703 0.841809
216 1 0.379368 0.021934 0.80693
347 2 0.49241 0.000482488 0.863458
108 1 0.361178 0.457975 0.223047
32 1 0.356237 0.335657 0.0868067
126 1 0.442163 0.320239 0.215201
167 1 0.28701 0.298001 0.22496
92 1 0.39306 0.379113 0.379156
314 2 0.25169 0.38446 0.478917
189 1 0.26593 0.278293 0.398348
249 1 0.492288 0.48976 0.455409
277 1 0.350412 0.422155 0.646463
251 1 0.344157 0.479254 0.506336
171 1 0.313229 0.261585 0.642875
48 1 0.36773 0.332767 0.519313
291 2 0.468502 0.478906 0.700397
339 2 0.256309 0.348694 0.725275
284 1 0.492308 0.406116 0.589626
193 1 0.304963 0.379273 0.844884
109 1 0.477526 0.381813 0.863607
294 2 0.398281 0.379281 0.751888
281 1 0.412019 0.250607 0.947964
229 1 0.391194 0.494886 0.792299
310 2 0.367179 0.395098 0.962329
260 1 0.468499 0.457745 0.996564
166 1 0.259152 0.255776 0.970242
191 1 0.388949 0.253619 0.78905
118 1 0.255109 0.433064 0.999932
253 1 0.328011 0.665802 0.16257
105 1 0.457158 0.65456 0.0497142
197 1 0.366178 0.530553 0.0859005
308 2 0.441381 0.740205 0.179675
256 1 0.431521 0.59385 0.242319
7 1 0.29973 0.662172 0.00861017
202 1 0.474513 0.641709 0.461572
119 1 0.364305 0.568061 0.376892
230 1 0.339374 0.7165 0.303061
218 1 0.498434 0.708441 0.310158
150 1 0.436364 0.5522 0.590774
312 2 0.351515 0.551375 0.690186
52 1 0.287733 0.668098 0.697246
190 1 0.474816 0.606011 0.741557
157 1 0.438077 0.708949 0.59687
149 1 0.320031 0.641561 0.517494
222 1 0.252869 0.53502 0.612808
283 1 0.284215 0.545544 0.890217
286 1 0.437549 0.705457 0.90845
303 2 0.370465 0.62124 0.824901
75 1 0.305842 0.724866 0.840631
292 2 0.399425 0.581627 0.967128
174 1 0.352784 0.845249 0.159779
23 1 0.495572 0.814779 0.0812479
329 2 0.406651 0.913214 0.0593104
128 1 0.478108 0.956277 0.14419
273 1 0.357532 0.974202 0.239844
72 1 0.353493 0.806404 0.00733943
179 1 0.421961 0.843123 0.287614
28 1 0.287282 0.856233 0.356247
160 1 0.429963 0.914062 0.449761
232 1 0.384546 0.759733 0.435792
61 1 0.276241 0.962791 0.470754
121 1 0.398251 0.905533 0.60972
49 1 0.27761 0.832921 0.699453
152 1 0.299797 0.813745 0.537418