ITEM: TIMESTEP
0
ITEM: NUMBER OF ATOMS
360
ITEM: BOX BOUNDS pp pp pp
0.0000000000000000e+00 6.6943295008216896e+00
0.0000000000000000e+00 6.6943295008216896e+00
0.0000000000000000e+00 6.6943295008216896e+00
ITEM: ATOMS id type xs ys zs
1 1 0 0 0
2 1 0.111572 0.111572 0
3 1 0.111572 0 0.111572
4 1 0 0.111572 0.111572
5 1 0.223144 0 0
6 1 0.223144 0.111572 0.111572
7 1 0 0.223144 0
8 1 0.111572 0.223144 0.111572
9 1 0.223144 0.223144 0
10 1 0 0 0.223144
11 1 0.111572 0.111572 0.223144
12 1 0.223144 0 0.223144
13 1 0 0.223144 0.223144
14 1 0.223144 0.223144 0.223144
15 1 0.111572 0 0.334716
16 1 0 0.111572 0.334716
17 1 0.223144 0.111572 0.334716
18 1 0.111572 0.223144 0.334716
19 1 0 0 0.446289
20 1 0.111572 0.111572 0.446289
21 1 0.223144 0 0.446289
22 1 0 0.223144 0.446289
23 1 0.223144 0.223144 0.446289
24 1 0.111572 0 0.557861
25 1 0 0.111572 0.557861
26 1 0.223144 0.111572 0.557861
27 1 0.111572 0.223144 0.557861
28 1 0 0 0.669433
29 1 0.111572 0.111572 0.669433
30 1 0.223144 0 0.669433
31 1 0 0.223144 0.669433
32 1 0.223144 0.223144 0.669433
33 1 0.111572 0 0.781005
34 1 0 0.111572 0.781005
35 1 0.223144 0.111572 0.781005
36 1 0.111572 0.223144 0.781005
37 1 0 0 0.892577
38 1 0.111572 0.111572 0.892577
39 1 0.223144 0 0.892577
40 1 0 0.223144 0.892577
41 1 0.223144 0.223144 0.892577
42 1 0.111572 0.334716 0
43 1 0 0.334716 0.111572
44 1 0.223144 0.334716 0.111572
45 1 0 0.446289 0
46 1 0.111572 0.446289 0.111572
47 1 0.223144 0.446289 0
48 1 0.111572 0.334716 0.223144
49 1 0 0.446289 0.223144
50 1 0.223144 0.446289 0.223144
51 1 0 0.334716 0.334716
52 1 0.223144 0.334716 0.334716
53 1 0.111572 0.446289 0.334716
54 1 0.111572 0.334716 0.446289
55 1 0 0.446289 0.446289
56 1 0.223144 0.446289 0.446289
57 1 0 0.334716 0.557861
58 1 0.223144 0.334716 0.557861
59 1 0.111572 0.446289 0.557861
60 1 0.111572 0.334716 0.669433
61 1 0 0.446289 0.669433
62 1 0.223144 0.446289 0.669433
63 1 0 0.334716 0.781005
64 1 0.223144 0.334716 0.781005
65 1 0.111572 0.446289 0.781005
66 1 0.111572 0.334716 0.892577
67 1 0 0.446289 0.892577
68 1 0.223144 0.446289 0.892577
69 1 0.111572 0.557861 0
70 1 0 0.557861 0.111572
71 1 0.223144 0.557861 0.111572
72 1 0 0.669433 0
73 1 0.111572 0.669433 0.111572
74 1 0.223144 0.669433 0
75 1 0.111572 0.557861 0.223144
76 1 0 0.669433 0.223144
77 1 0.223144 0.669433 0.223144
78 1 0 0.557861 0.334716
79 1 0.223144 0.557861 0.334716
80 1 0.111572 0.669433 0.334716
81 1 0.111572 0.557861 0.446289
82 1 0 0.669433 0.446289
83 1 0.223144 0.669433 0.446289
84 1 0 0.557861 0.557861
85 1 0.223144 0.557861 0.557861
86 1 0.111572 0.669433 0.557861
87 1 0.111572 0.557861 0.669433
88 1 0 0.669433 0.669433
89 1 0.223144 0.669433 0.669433
90 1 0 0.557861 0.781005
91 1 0.223144 0.557861 0.781005
92 1 0.111572 0.669433 0.781005
93 1 0.111572 0.557861 0.892577
94 1 0 0.669433 0.892577
95 1 0.223144 0.669433 0.892577
96 1 0.111572 0.781005 0
97 1 0 0.781005 0.111572
98 1 0.223144 0.781005 0.111572
99 1 0 0.892577 0
100 1 0.111572 0.892577 0.111572
101 1 0.223144 0.892577 0
102 1 0.111572 0.781005 0.223144
103 1 0 0.892577 0.223144
104 1 0.223144 0.892577 0.223144
105 1 0 0.781005 0.334716
106 1 0.223144 0.781005 0.334716
107 1 0.111572 0.892577 0.334716
108 1 0.111572 0.781005 0.446289
109 1 0 0.892577 0.446289
110 1 0.223144 0.892577 0.446289
111 1 0 0.781005 0.557861
112 1 0.223144 0.781005 0.557861
113 1 0.111572 0.892577 0.557861
114 1 0.111572 0.781005 0.669433
115 1 0 0.892577 0.669433
116 1 0.223144 0.892577 0.669433
117 1 0 0.781005 0.781005
118 1 0.223144 0.781005 0.781005
119 1 0.111572 0.892577 0.781005
120 1 0.111572 0.781005 0.892577
121 1 0 0.892577 0.892577
122 1 0.223144 0.892577 0.892577
123 1 0.334716 0.111572 0
124 1 0.334716 0 0.111572
125 1 0.446289 0 0
126 1 0.446289 0.111572 0.111572
127 1 0.334716 0.223144 0.111572
128 1 0.446289 0.223144 0
129 1 0.334716 0.111572 0.223144
130 1 0.446289 0 0.223144
131 1 0.446289 0.223144 0.223144
132 1 0.334716 0 0.334716
133 1 0.446289 0.111572 0.334716
134 1 0.334716 0.223144 0.334716
135 1 0.334716 0.111572 0.446289
136 1 0.446289 0 0.446289
137 1 0.446289 0.223144 0.446289
138 1 0.334716 0 0.557861
139 1 0.446289 0.111572 0.557861
140 1 0.334716 0.223144 0.557861
141 1 0.334716 0.111572 0.669433
142 1 0.446289 0 0.669433
143 1 0.446289 0.223144 0.669433
144 1 0.334716 0 0.781005
145 1 0.446289 0.111572 0.781005
146 1 0.334716 0.223144 0.781005
147 1 0.334716 0.111572 0.892577
148 1 0.446289 0 0.892577
149 1 0.446289 0.223144 0.892577
150 1 0.334716 0.334716 0
151 1 0.446289 0.334716 0.111572
152 1 0.334716 0.446289 0.111572
153 1 0.446289 0.446289 0
154 1 0.334716 0.334716 0.223144
155 1 0.446289 0.446289 0.223144
156 1 0.446289 0.334716 0.334716
157 1 0.334716 0.446289 0.334716
158 1 0.334716 0.334716 0.446289
159 1 0.446289 0.446289 0.446289
160 1 0.446289 0.334716 0.557861
161 1 0.334716 0.446289 0.557861
162 1 0.334716 0.334716 0.669433
163 1 0.446289 0.446289 0.669433
164 1 0.446289 0.334716 0.781005
165 1 0.334716 0.446289 0.781005
166 1 0.334716 0.334716 0.892577
167 1 0.446289 0.446289 0.892577
168 1 0.334716 0.557861 0
169 1 0.446289 0.557861 0.111572
170 1 0.334716 0.669433 0.111572
171 1 0.446289 0.669433 0
172 1 0.334716 0.557861 0.223144
173 1 0.446289 0.669433 0.223144
174 1 0.446289 0.557861 0.334716
175 1 0.334716 0.669433 0.334716
176 1 0.334716 0.557861 0.446289
177 1 0.446289 0.669433 0.446289
178 1 0.446289 0.557861 0.557861
179 1 0.334716 0.669433 0.557861
180 1 0.334716 0.557861 0.669433
181 1 0.446289 0.669433 0.669433
182 1 0.446289 0.557861 0.781005
183 1 0.334716 0.669433 0.781005
184 1 0.334716 0.557861 0.892577
185 1 0.446289 0.669433 0.892577
186 1 0.334716 0.781005 0
187 1 0.446289 0.781005 0.111572
188 1 0.334716 0.892577 0.111572
189 1 0.446289 0.892577 0
190 1 0.334716 0.781005 0.223144
191 1 0.446289 0.892577 0.223144
192 1 0.446289 0.781005 0.334716
193 1 0.334716 0.892577 0.334716
194 1 0.334716 0.781005 0.446289
195 1 0.446289 0.892577 0.446289
196 1 0.446289 0.781005 0.557861
197 1 0.334716 0.892577 0.557861
198 1 0.334716 0.781005 0.669433
199 1 0.446289 0.892577 0.669433
200 1 0.446289 0.781005 0.781005
201 1 0.334716 0.892577 0.781005
202 1 0.334716 0.781005 0.892577
203 1 0.446289 0.892577 0.892577
204 1 0.557861 0.111572 0
205 1 0.557861 0 0.111572
206 1 0.669433 0 0
207 1 0.669433 0.111572 0.111572
208 1 0.557861 0.223144 0.111572
209 1 0.669433 0.223144 0
210 1 0.557861 0.111572 0.223144
211 1 0.669433 0 0.223144
212 1 0.669433 0.223144 0.223144
213 1 0.557861 0 0.334716
214 1 0.669433 0.111572 0.334716
215 1 0.557861 0.223144 0.334716
216 1 0.557861 0.111572 0.446289
217 1 0.669433 0 0.446289
218 1 0.669433 0.223144 0.446289
219 1 0.557861 0 0.557861
220 1 0.669433 0.111572 0.557861
221 1 0.557861 0.223144 0.557861
222 1 0.557861 0.111572 0.669433
223 1 0.669433 0 0.669433
224 1 0.669433 0.223144 0.669433
225 1 0.557861 0 0.781005
226 1 0.669433 0.111572 0.781005
227 1 0.557861 0.223144 0.781005
228 1 0.557861 0.111572 0.892577
229 1 0.669433 0 0.892577
230 1 0.669433 0.223144 0.892577
231 1 0.557861 0.334716 0
232 1 0.669433 0.334716 0.111572
233 1 0.557861 0.446289 0.111572
234 1 0.669433 0.446289 0
235 1 0.557861 0.334716 0.223144
236 1 0.669433 0.446289 0.223144
237 1 0.669433 0.334716 0.334716
238 1 0.557861 0.446289 0.334716
239 1 0.557861 0.334716 0.446289
240 1 0.669433 0.446289 0.446289
241 1 0.669433 0.334716 0.557861
242 1 0.557861 0.446289 0.557861
243 1 0.557861 0.334716 0.669433
244 1 0.669433 0.446289 0.669433
245 1 0.669433 0.334716 0.781005
246 1 0.557861 0.446289 0.781005
247 1 0.557861 0.334716 0.892577
248 1 0.669433 0.446289 0.892577
249 1 0.557861 0.557861 0
250 1 0.669433 0.557861 0.111572
251 1 0.557861 0.669433 0.111572
252 1 0.669433 0.669433 0
253 1 0.557861 0.557861 0.223144
254 1 0.669433 0.669433 0.223144
255 1 0.669433 0.557861 0.334716
256 1 0.557861 0.669433 0.334716
257 1 0.557861 0.557861 0.446289
258 1 0.669433 0.669433 0.446289
259 1 0.669433 0.557861 0.557861
260 1 0.557861 0.669433 0.557861
261 1 0.557861 0.557861 0.669433
262 1 0.669433 0.669433 0.669433
263 1 0.669433 0.557861 0.781005
264 1 0.557861 0.669433 0.781005
265 1 0.557861 0.557861 0.892577
266 1 0.669433 0.669433 0.892577
267 1 0.557861 0.781005 0
268 1 0.669433 0.781005 0.111572
269 1 0.557861 0.892577 0.111572
270 1 0.669433 0.892577 0
271 1 0.557861 0.781005 0.223144
272 1 0.669433 0.892577 0.223144
273 1 0.669433 0.781005 0.334716
274 1 0.557861 0.892577 0.334716
275 1 0.557861 0.781005 0.446289
276 1 0.669433 0.892577 0.446289
277 1 0.669433 0.781005 0.557861
278 1 0.557861 0.892577 0.557861
279 1 0.557861 0.781005 0.669433
280 1 0.669433 0.892577 0.669433
281 1 0.669433 0.781005 0.781005
282 1 0.557861 0.892577 0.781005
283 1 0.557861 0.781005 0.892577
284 1 0.669433 0.892577 0.892577
285 1 0.781005 0.111572 0
286 1 0.781005 0 0.111572
287 1 0.892577 0 0
288 1 0.892577 0.111572 0.111572
289 2 0.781005 0.223144 0.111572
290 2 0.892577 0.223144 0
291 2 0.781005 0.111572 0.223144
292 2 0.892577 0 0.223144
293 2 0.892577 0.223144 0.223144
294 2 0.781005 0 0.334716
295 2 0.892577 0.111572 0.334716
296 2 0.781005 0.223144 0.334716
297 2 0.781005 0.111572 0.446289
298 2 0.892577 0 0.446289
299 2 0.892577 0.223144 0.446289
300 2 0.781005 0 0.557861
301 2 0.892577 0.111572 0.557861
302 2 0.781005 0.223144 0.557861
303 2 0.781005 0.111572 0.669433
304 2 0.892577 0 0.669433
305 2 0.892577 0.223144 0.669433
306 2 0.781005 0 0.781005
307 2 0.892577 0.111572 0.781005
308 2 0.781005 0.223144 0.781005
309 2 0.781005 0.111572 0.892577
310 2 0.892577 0 0.892577
311 2 0.892577 0.223144 0.892577
312 2 0.781005 0.334716 0
313 2 0.892577 0.334716 0.111572
314 2 0.781005 0.446289 0.111572
315 2 0.892577 0.446289 0
316 2 0.781005 0.334716 0.223144
317 2 0.892577 0.446289 0.223144
318 2 0.892577 0.334716 0.334716
319 2 0.781005 0.446289 0.334716
320 2 0.781005 0.334716 0.446289
321 2 0.892577 0.446289 0.446289
322 2 0.892577 0.334716 0.557861
323 2 0.781005 0.446289 0.557861
324 2 0.781005 0.334716 0.669433
325 2 0.892577 0.446289 0.669433
326 2 0.892577 0.334716 0.781005
327 2 0.781005 0.446289 0.781005
328 2 0.781005 0.334716 0.892577
329 2 0.892577 0.446289 0.892577
330 2 0.781005 0.557861 0
331 2 0.892577 0.557861 0.111572
332 2 0.781005 0.669433 0.111572
333 2 0.892577 0.669433 0
334 2 0.781005 0.557861 0.223144
335 2 0.892577 0.669433 0.223144
336 2 0.892577 0.557861 0.334716
337 2 0.781005 0.669433 0.334716
338 2 0.781005 0.557861 0.446289
339 2 0.892577 0.669433 0.446289
340 2 0.892577 0.557861 0.557861
341 2 0.781005 0.669433 0.557861
342 2 0.781005 0.557861 0.669433
343 2 0.892577 0.669433 0.669433
344 2 0.892577 0.557861 0.781005
345 2 0.781005 0.669433 0.781005
346 2 0.781005 0.557861 0.892577
347 2 0.892577 0.669433 0.892577
348 2 0.781005 0.781005 0
349 2 0.892577 0.781005 0.111572
350 2 0.781005 0.892577 0.111572
351 2 0.892577 0.892577 0
352 2 0.781005 0.781005 0.223144
353 2 0.892577 0.892577 0.223144
354 2 0.892577 0.781005 0.334716
355 2 0.781005 0.892577 0.334716
356 2 0.781005 0.781005 0.446289
357 2 0.892577 0.892577 0.446289
358 2 0.892577 0.781005 0.557861
359 2 0.781005 0.892577 0.557861
360 2 0.781005 0.781005 0.669433
ITEM: TIMESTEP
10000
ITEM: NUMBER OF ATOMS
360
ITEM: BOX BOUNDS pp pp pp
0.0000000000000000e+00 6.6943295008216896e+00
0.0000000000000000e+00 6.6943295008216896e+00
0.0000000000000000e+00 6.6943295008216896e+00
ITEM: ATOMS id type xs ys zs
220 1 0.128246 0.0290677 0.0944326
93 1 0.0875784 0.0411078 0.220113
185 1 0.0517133 0.163172 0.0387819
28 1 0.165165 0.167806 0.217442
322 2 0.21178 0.00623613 0.206183
206 1 0.02607 0.247736 0.140636
357 2 0.121495 0.159728 0.330225
61 1 0.00287719 0.194485 0.277081
132 1 0.122046 0.0487954 0.474349
165 1 0.134787 0.00542602 0.348582
350 2 0.102157 0.189163 0.663279
138 1 0.0359514 0.170081 0.50356
246 1 0.14314 0.249448 0.527425
143 1 0.151966 0.06251 0.660785
122 1 0.241391 0.152018 0.584069
157 1 0.0287076 0.0405391 0.979688
37 1 0.0408027 0.18854 0.879972
289 2 0.0192005 0.0627057 0.853453
217 1 0.171608 0.157749 0.981161
243 1 0.146314 0.145049 0.782742
282 1 0.165753 0.000466101 0.861501
318 2 0.217959 0.0494693 0.769975
310 2 0.211862 0.378792 0.174192
199 1 0.160906 0.253806 0.0761719
316 2 0.140579 0.471216 0.238183
287 1 0.0326239 0.398466 0.106866
64 1 0.159663 0.48028 0.0504882
334 2 0.190437 0.360804 0.057055
231 1 0.217607 0.480852 0.330003
239 1 0.0936725 0.363986 0.375674
97 1 0.0300363 0.383552 0.257014
73 1 0.133578 0.322452 0.259836
328 2 0.169864 0.2782 0.719512
212 1 0.139717 0.38102 0.74474
290 2 0.0562786 0.315344 0.664716
190 1 0.0395578 0.34042 0.522153
152 1 0.16156 0.426812 0.606484
166 1 0.203503 0.250518 0.833629
67 1 0.0493838 0.303449 0.807301
83 1 0.0615801 0.498526 0.79753
151 1 0.162254 0.383088 0.886129
292 2 0.120765 0.299298 0.987059
44 1 0.012138 0.333248 0.967587
254 1 0.0590613 0.714979 0.0761373
137 1 0.184525 0.558265 0.18326
23 1 0.00908105 0.609773 0.23821
158 1 0.0536236 0.54022 0.134738
213 1 0.226225 0.63411 0.321737
100 1 0.100342 0.506233 0.335957
154 1 0.08989 0.619434 0.384209
19 1 0.0204867 0.737528 0.45157
161 1 0.0901902 0.521542 0.497246
148 1 0.0627755 0.635794 0.537965
153 1 0.207511 0.576842 0.560216
130 1 0.146202 0.656932 0.666468
60 1 0.0617305 0.551214 0.666708
225 1 0.0146146 0.711909 0.728415
248 1 0.176556 0.712721 0.535211
49 1 0.200537 0.532851 0.719331
355 2 0.00175001 0.528859 0.579997
21 1 0.0583829 0.63654 0.967576
171 1 0.128417 0.66575 0.839663
256 1 0.183706 0.669231 0.949149
252 1 0.176549 0.533935 0.892337
340 2 0.0208311 0.73826 0.878462
323 2 0.0911187 0.759058 0.187997
113 1 0.159799 0.855183 0.186892
106 1 0.130722 0.906557 0.038866
293 2 0.00636177 0.864858 0.028971
226 1 0.195465 0.784057 0.0740385
74 1 0.0987519 0.844144 0.495945
241 1 0.156764 0.876391 0.330662
85 1 0.0318477 0.919713 0.251779
336 2 0.0189899 0.958364 0.485032
309 2 0.0634013 0.754071 0.294382
125 1 0.194439 0.757238 0.311135
326 2 0.00241989 0.76449 0.611495
163 1 0.1964 0.93128 0.605346
275 1 0.0650819 0.935059 0.698114
82 1 0.112057 0.79338 0.632523
280 1 0.235674 0.75729 0.655643
35 1 0.192297 0.899326 0.748531
312 2 0.0433933 0.812508 0.806656
189 1 0.0129874 0.929378 0.91321
62 1 0.125211 0.805414 0.94129
343 2 0.367198 0.205251 0.0973681
284 1 0.469416 0.186223 0.217812
164 1 0.451836 0.150346 0.0562999
266 1 0.477903 0.0301737 0.115419
211 1 0.316063 0.0794438 0.0816134
347 2 0.296411 0.140068 0.230037
197 1 0.378469 0.074295 0.197502
263 1 0.25318 0.227256 0.168821
65 1 0.353814 0.211104 0.303149
2 1 0.269328 0.0506227 0.290021
170 1 0.489559 0.0729329 0.364658
338 2 0.26455 0.133813 0.461835
221 1 0.255951 0.213036 0.372623
135 1 0.276852 0.243565 0.701674
270 1 0.339848 0.0246243 0.563871
351 2 0.481854 0.0425372 0.676888
167 1 0.425853 0.183351 0.500379
235 1 0.480847 0.0637821 0.554806
53 1 0.353819 0.0280254 0.704757
271 1 0.412868 0.0298201 0.846058
208 1 0.321067 0.17911 0.933123
6 1 0.267698 0.0321837 0.952053
341 2 0.283731 0.153026 0.80311
303 2 0.440514 0.109533 0.932629
101 1 0.428425 0.166528 0.750373
223 1 0.44857 0.219836 0.93317
265 1 0.408716 0.0195768 0.978543
273 1 0.364636 0.32164 0.165149
38 1 0.302544 0.285079 0.0432783
10 1 0.435741 0.467899 0.0280233
238 1 0.483306 0.291175 0.0758791
48 1 0.295725 0.474881 0.101019
229 1 0.459544 0.369158 0.249738
305 2 0.477637 0.481413 0.364306
200 1 0.355264 0.459476 0.303989
278 1 0.367014 0.347072 0.414988
147 1 0.261113 0.341094 0.32775
87 1 0.399019 0.271522 0.659567
196 1 0.366304 0.435749 0.658634
203 1 0.30786 0.499312 0.543261
264 1 0.269829 0.355971 0.588893
139 1 0.482838 0.474402 0.614621
89 1 0.486138 0.38693 0.721998
215 1 0.468982 0.395664 0.504067
123 1 0.491556 0.352679 0.964463
186 1 0.407214 0.437261 0.867151
102 1 0.318296 0.380946 0.925286
276 1 0.476391 0.272594 0.810786
195 1 0.282636 0.390403 0.763593
337 2 0.312662 0.612575 0.180859
191 1 0.403982 0.721542 0.195268
41 1 0.43458 0.595313 0.0689489
335 2 0.488357 0.648056 0.236897
348 2 0.30432 0.537202 0.00559153
227 1 0.273918 0.616059 0.0711575
114 1 0.410476 0.50423 0.169086
3 1 0.418074 0.655481 0.448397
267 1 0.263817 0.671177 0.460195
207 1 0.383222 0.621862 0.277823
59 1 0.335374 0.537261 0.41447
194 1 0.332652 0.740624 0.347099
240 1 0.490481 0.715292 0.326863
183 1 0.330308 0.607797 0.696291
58 1 0.436519 0.606433 0.61564
9 1 0.441923 0.578755 0.776658
311 2 0.299306 0.669297 0.815427
40 1 0.476054 0.694322 0.863489
249 1 0.302379 0.52105 0.823908
70 1 0.380832 0.566164 0.915898
330 2 0.390788 0.738721 0.821907
149 1 0.448639 0.735992 0.98644
145 1 0.293538 0.738714 0.994429
333 2 0.47009 0.935059 0.222442
269 1 0.257026 0.947706 0.100546
228 1 0.373241 0.924738 0.162979
182 1 0.291023 0.817398 0.186017
301 2 0.478923 0.852619 0.151876
277 1 0.447112 0.897939 0.055517
346 2 0.362822 0.824222 0.269671
218 1 0.45026 0.901927 0.346787
50 1 0.32522 0.918478 0.277316
117 1 0.393691 0.816652 0.460894
258 1 0.259232 0.85537 0.4225
216 1 0.269011 0.969174 0.467208
198 1 0.463658 0.971791 0.452981
92 1 0.319769 0.861841 0.544071
46 1 0.307155 0.885877 0.670933
299 2 0.474126 0.873258 0.675456
120 1 0.386804 0.755326 0.695026
230 1 0.377152 0.859298 0.923039
283 1 0.311482 0.952705 0.824104
34 1 0.269744 0.790038 0.791022
202 1 0.397065 0.873542 0.774416
17 1 0.252647 0.86888 0.929028
107 1 0.596915 0.222544 0.149265
84 1 0.668875 0.0838415 0.119708
306 2 0.553404 0.110067 0.0320159
29 1 0.681474 0.198231 0.0172419
86 1 0.699485 0.153224 0.231535
54 1 0.576119 0.0167539 0.225503
317 2 0.65374 0.213441 0.358915
127 1 0.591434 0.142463 0.306471
325 2 0.668231 0.0648835 0.322307
172 1 0.732173 0.13926 0.444822
159 1 0.579996 0.115571 0.495573
15 1 0.668929 0.147881 0.612004
33 1 0.729835 0.143097 0.738166
1 1 0.6626 0.026525 0.660822
262 1 0.537776 0.236113 0.670469
91 1 0.594657 0.108046 0.74678
288 1 0.65333 0.0280203 0.964033
214 1 0.577789 0.130765 0.922028
324 2 0.68422 0.15862 0.837753
68 1 0.728302 0.0267831 0.836837
160 1 0.567571 0.381416 0.150129
32 1 0.695316 0.494885 0.0705393
177 1 0.554254 0.396978 0.353315
187 1 0.713914 0.308174 0.314449
272 1 0.62857 0.459584 0.262325
81 1 0.572942 0.277206 0.409411
354 2 0.541599 0.39376 0.614643
128 1 0.653545 0.365779 0.666
236 1 0.737728 0.263523 0.581344
259 1 0.655188 0.499952 0.528834
344 2 0.705001 0.259464 0.709815
75 1 0.54453 0.271221 0.540397
307 2 0.630925 0.374084 0.525314
298 2 0.734498 0.457055 0.579372
142 1 0.722173 0.372371 0.850084
39 1 0.570787 0.385034 0.866662
8 1 0.606325 0.302787 0.941533
22 1 0.665981 0.415104 0.972053
286 1 0.563814 0.491556 0.781613
79 1 0.688197 0.484519 0.790725
274 1 0.600779 0.252272 0.780157
45 1 0.737393 0.52933 0.194795
36 1 0.601808 0.595042 0.220895
184 1 0.552589 0.676099 0.118335
224 1 0.579521 0.541181 0.0563091
319 2 0.66178 0.680512 0.0913409
118 1 0.702356 0.693196 0.236943
24 1 0.546175 0.652051 0.455146
296 2 0.582322 0.692372 0.276009
11 1 0.679273 0.630999 0.360376
78 1 0.629531 0.511492 0.389861
232 1 0.513576 0.522401 0.261921
188 1 0.619763 0.703456 0.720031
204 1 0.591071 0.550853 0.657167
94 1 0.702035 0.62054 0.741759
176 1 0.540634 0.749227 0.626085
90 1 0.675989 0.638808 0.59145
279 1 0.511498 0.523358 0.50273
210 1 0.612116 0.717358 0.883986
342 2 0.627629 0.50184 0.901629
329 2 0.546238 0.669694 0.976141
352 2 0.699 0.591002 0.976362
294 2 0.577154 0.611673 0.855988
353 2 0.686014 0.703846 0.966831
30 1 0.521524 0.517928 0.93726
126 1 0.608393 0.771296 0.0349242
144 1 0.62293 0.79332 0.224674
268 1 0.674024 0.951098 0.181413
178 1 0.592835 0.913974 0.0902211
173 1 0.734075 0.810843 0.131669
108 1 0.716009 0.950989 0.064888
95 1 0.746432 0.827491 0.285764
219 1 0.617347 0.986083 0.409807
261 1 0.56756 0.846201 0.326243
88 1 0.649812 0.758196 0.460594
110 1 0.528423 0.838549 0.498436
250 1 0.54183 0.917962 0.596354
99 1 0.704022 0.794043 0.696016
308 2 0.741801 0.917749 0.632576
255 1 0.529046 0.957013 0.728827
168 1 0.668664 0.917678 0.530157
156 1 0.659789 0.887769 0.923039
131 1 0.536744 0.814532 0.928826
209 1 0.541596 0.986977 0.956345
179 1 0.522231 0.812806 0.786388
136 1 0.634316 0.868245 0.799525
345 2 0.71998 0.80996 0.789699
5 1 0.754969 0.183338 0.126972
105 1 0.911943 0.156079 0.0880004
234 1 0.800002 0.0708127 0.156194
358 2 0.935344 0.0764909 0.23601
115 1 0.897188 0.205827 0.207639
180 1 0.970758 0.0525698 0.12663
295 2 0.832478 0.210151 0.0495271
18 1 0.977618 0.0340482 0.372923
174 1 0.798574 0.00559679 0.396144
134 1 0.895416 0.178132 0.381172
96 1 0.810918 0.123971 0.294182
297 2 0.827926 0.104797 0.490754
55 1 0.899423 0.245903 0.50077
63 1 0.876824 0.0568342 0.692974
98 1 0.980515 0.208033 0.659888
31 1 0.827103 0.158226 0.615225
260 1 0.927149 0.0544136 0.52635
150 1 0.982775 0.0845558 0.743228
27 1 0.9754 0.0154936 0.634084
320 2 0.84141 0.150245 0.733359
129 1 0.925142 0.187193 0.965327
247 1 0.771153 0.173972 0.895913
16 1 0.871591 0.0711173 0.857662
13 1 0.809936 0.0909359 0.981154
242 1 0.906025 0.200067 0.841249
304 2 0.891291 0.443082 0.0371648
119 1 0.803554 0.32004 0.148126
111 1 0.927343 0.318212 0.0659899
339 2 0.878831 0.370854 0.245746
302 2 0.803665 0.412674 0.103429
140 1 0.751594 0.320292 0.00189694
20 1 0.838144 0.275731 0.330771
7 1 0.829514 0.406557 0.396228
69 1 0.81284 0.448575 0.272089
313 2 0.92029 0.420629 0.34757
146 1 0.963831 0.411422 0.4395
133 1 0.757432 0.279221 0.453827
109 1 0.938153 0.495252 0.254195
233 1 0.859462 0.299911 0.629977
26 1 0.925375 0.463201 0.691263
193 1 0.784053 0.397068 0.67167
116 1 0.795891 0.368038 0.530417
349 2 0.757726 0.493793 0.711464
360 2 0.998399 0.389232 0.742249
359 2 0.884468 0.300242 0.915216
52 1 0.917729 0.371474 0.85053
121 1 0.769231 0.260337 0.79713
205 1 0.976134 0.460305 0.940258
327 2 0.915833 0.297283 0.761916
51 1 0.854088 0.554603 0.142972
43 1 0.855259 0.66756 0.214659
77 1 0.929789 0.595277 0.0517807
12 1 0.768522 0.693623 0.0710403
237 1 0.896443 0.580339 0.3507
331 2 0.786834 0.548373 0.304458
181 1 0.942311 0.562952 0.475993
104 1 0.762821 0.667298 0.452532
103 1 0.959882 0.733235 0.278903
356 2 0.785718 0.684933 0.322376
56 1 0.779904 0.531919 0.456635
155 1 0.788938 0.684421 0.605203
72 1 0.83229 0.609365 0.707075
281 1 0.93296 0.645601 0.577457
321 2 0.816082 0.547992 0.595958
175 1 0.872497 0.741132 0.510733
162 1 0.953337 0.589974 0.923337
112 1 0.960998 0.594769 0.790239
285 1 0.807019 0.638402 0.844311
244 1 0.791514 0.545083 0.934993
47 1 0.855085 0.515647 0.809306
332 2 0.837852 0.669299 0.982676
257 1 0.8693 0.842023 0.0440862
14 1 0.876921 0.835131 0.220137
314 2 0.835038 0.757321 0.146412
25 1 0.855454 0.986549 0.029465
300 2 0.923209 0.943184 0.189056
80 1 0.966756 0.804706 0.132793
141 1 0.806224 0.958119 0.227764
201 1 0.952945 0.750496 0.00798868
71 1 0.865194 0.898602 0.476489
192 1 0.752821 0.882906 0.414005
57 1 0.850302 0.77404 0.392276
124 1 0.89684 0.917283 0.319085
251 1 0.906329 0.808973 0.71338
42 1 0.836478 0.973467 0.58029
66 1 0.759356 0.807433 0.541242
4 1 0.970644 0.872747 0.543502
169 1 0.795055 0.881821 0.725456
315 2 0.788208 0.985629 0.757847
291 2 0.889383 0.992128 0.933972
222 1 0.806778 0.905175 0.892793
76 1 0.914201 0.957033 0.780465
253 1 0.924575 0.814684 0.844246
245 1 0.753498 0.765997 0.891578
