ITEM: TIMESTEP
0
ITEM: NUMBER OF ATOMS
360
ITEM: BOX BOUNDS pp pp pp
0.0000000000000000e+00 6.6943295008216896e+00
0.0000000000000000e+00 6.6943295008216896e+00
0.0000000000000000e+00 6.6943295008216896e+00
ITEM: ATOMS id type xs ys zs
267 1 0.161012 0.048982 0.0657568
107 1 0.143528 0.0834086 0.216849
79 1 0.064452 0.157728 0.117801
16 1 0.181474 0.229397 0.190572
100 1 0.249557 0.190677 0.0539262
62 1 0.0302284 0.113549 0.371816
174 1 0.0733853 0.243219 0.434665
320 2 0.164286 0.156927 0.320568
65 1 0.0293415 0.229205 0.265479
321 2 0.116387 0.127482 0.487813
25 1 0.229167 0.175215 0.41724
225 1 0.173894 0.0230142 0.377614
200 1 0.0635284 0.0115031 0.477932
330 2 0.134647 0.165339 0.681899
102 1 0.131548 0.0629262 0.605968
287 1 0.170555 0.240013 0.565088
282 1 0.0313146 0.175205 0.572377
61 1 0.24916 0.0504906 0.514449
252 1 0.020892 0.237733 0.708986
99 1 0.0442841 0.0806938 0.973799
157 1 0.0641147 0.0956676 0.757321
326 2 0.118209 0.16714 0.846611
219 1 0.217032 0.10789 0.786809
294 2 0.162784 0.14492 0.962667
171 1 0.0341288 0.459092 0.140021
138 1 0.0916534 0.370059 0.245648
20 1 0.162983 0.338453 0.0627539
355 2 0.162008 0.446897 0.131775
167 1 0.0121729 0.305278 0.100372
164 1 0.242597 0.371024 0.207506
94 1 0.175501 0.494856 0.0158191
188 1 0.0312289 0.37272 0.382502
71 1 0.189793 0.322677 0.345287
195 1 0.15462 0.379623 0.488672
29 1 0.0724539 0.490526 0.571395
275 1 0.129597 0.358362 0.671465
162 1 0.0121243 0.345809 0.564815
181 1 0.182498 0.355155 0.901332
12 1 0.0910152 0.469417 0.843459
90 1 0.0415947 0.305374 0.836991
251 1 0.0446193 0.421192 0.982671
116 1 0.178831 0.252338 0.770354
271 1 0.0874098 0.250015 0.969347
254 1 0.189547 0.590817 0.142171
88 1 0.0770395 0.611058 0.0471746
307 2 0.041105 0.695789 0.124831
283 1 0.220934 0.674632 0.0153233
130 1 0.143488 0.694425 0.408758
272 1 0.119721 0.542516 0.419523
57 1 0.233289 0.66709 0.276606
101 1 0.0305665 0.511451 0.298537
63 1 0.0213219 0.740912 0.484103
201 1 0.0821014 0.660668 0.259891
81 1 0.193517 0.501239 0.280406
70 1 0.208678 0.583495 0.573831
1 1 0.148951 0.520201 0.705236
279 1 0.0706251 0.657149 0.622508
336 2 0.0215116 0.547757 0.68957
261 1 0.17535 0.673553 0.742554
291 2 0.027406 0.598976 0.506921
246 1 0.0351427 0.609621 0.80946
331 2 0.0384334 0.545236 0.940911
67 1 0.151216 0.611526 0.89753
302 2 0.212539 0.52639 0.816918
203 1 0.0407816 0.980144 0.100167
72 1 0.180744 0.910695 0.148528
122 1 0.0488206 0.864253 0.209799
215 1 0.0352518 0.82468 0.0644834
150 1 0.157923 0.751984 0.155718
299 2 0.226547 0.985961 0.232181
35 1 0.0175886 0.975892 0.328901
221 1 0.0342767 0.787639 0.343284
51 1 0.164901 0.890774 0.297505
37 1 0.135301 0.876965 0.442136
345 2 0.154024 0.765076 0.287473
15 1 0.189515 0.930572 0.577239
222 1 0.0581843 0.955195 0.685072
212 1 0.0399859 0.832823 0.596375
315 2 0.13501 0.833337 0.673391
244 1 0.0535988 0.758873 0.731937
135 1 0.213156 0.965052 0.726759
266 1 0.202866 0.782395 0.538955
5 1 0.150072 0.849009 0.817
257 1 0.106122 0.993438 0.853804
281 1 0.135411 0.92127 0.992699
286 1 0.0847733 0.757939 0.93273
194 1 0.00687595 0.86158 0.846323
136 1 0.433703 0.149408 0.200849
253 1 0.38758 0.0791296 0.0578777
300 2 0.275627 0.0813259 0.13312
210 1 0.457222 0.20673 0.062632
4 1 0.429227 0.060093 0.315011
163 1 0.381074 0.161127 0.436233
311 2 0.309393 0.0705033 0.383752
117 1 0.281455 0.126756 0.259112
232 1 0.389327 0.0145456 0.47183
317 2 0.309978 0.169834 0.537906
292 2 0.369235 0.160704 0.706324
196 1 0.406766 0.0968268 0.605198
127 1 0.376385 0.249115 0.612994
327 2 0.319737 0.0380409 0.732411
114 1 0.439654 0.0260921 0.739454
89 1 0.258487 0.13414 0.645359
189 1 0.483008 0.18494 0.747368
3 1 0.260526 0.0715584 0.941236
180 1 0.370209 0.124232 0.83242
6 1 0.270126 0.220704 0.903387
340 2 0.41922 0.150291 0.948789
289 2 0.45591 0.333536 0.0780453
7 1 0.32798 0.325047 0.0273106
140 1 0.397905 0.422328 0.146062
268 1 0.342514 0.264418 0.157839
32 1 0.472664 0.296097 0.24818
346 2 0.284281 0.435829 0.0948515
208 1 0.306823 0.326117 0.468885
2 1 0.446622 0.337494 0.40358
86 1 0.344135 0.417623 0.304684
132 1 0.25801 0.468049 0.414234
262 1 0.489204 0.454794 0.263121
168 1 0.333919 0.265645 0.324423
245 1 0.443528 0.364716 0.551134
288 1 0.381921 0.445456 0.688379
334 2 0.264793 0.280314 0.657014
84 1 0.257519 0.388679 0.59996
96 1 0.499515 0.325878 0.686535
285 1 0.354718 0.493585 0.524227
227 1 0.433729 0.269684 0.892188
22 1 0.441181 0.406885 0.972881
77 1 0.41525 0.388665 0.814017
350 2 0.324014 0.345951 0.890393
9 1 0.290233 0.459232 0.931324
106 1 0.2538 0.408093 0.764621
236 1 0.329619 0.279169 0.767075
59 1 0.31112 0.561107 0.0571532
360 2 0.373351 0.69683 0.0196228
40 1 0.323461 0.553068 0.218561
248 1 0.30456 0.691577 0.1377
173 1 0.495284 0.705925 0.0657824
209 1 0.459902 0.587222 0.14642
175 1 0.40666 0.539034 0.372564
273 1 0.282885 0.639275 0.45377
226 1 0.397444 0.683703 0.293011
322 2 0.282552 0.563161 0.335962
156 1 0.447194 0.638174 0.484815
344 2 0.273144 0.506845 0.64385
97 1 0.331322 0.696009 0.606977
121 1 0.424223 0.584931 0.647415
74 1 0.303314 0.56523 0.740537
124 1 0.309459 0.614249 0.894499
303 2 0.375146 0.522058 0.842605
36 1 0.443878 0.552136 0.984752
78 1 0.457673 0.647291 0.874445
151 1 0.373195 0.709286 0.761996
206 1 0.290457 0.960901 0.0532916
240 1 0.39866 0.83748 0.100451
228 1 0.479982 0.957059 0.0610247
192 1 0.285097 0.822078 0.216959
239 1 0.362548 0.985529 0.192282
103 1 0.26018 0.824104 0.0123623
237 1 0.451464 0.893545 0.41439
143 1 0.294294 0.906151 0.472645
204 1 0.326393 0.933482 0.329788
324 2 0.380823 0.808246 0.349909
187 1 0.377116 0.764459 0.483072
233 1 0.449078 0.845309 0.261813
223 1 0.251147 0.794004 0.375212
308 2 0.399909 0.898506 0.528937
144 1 0.423952 0.824699 0.655672
274 1 0.33841 0.951077 0.632904
256 1 0.260182 0.807326 0.706809
319 2 0.316735 0.824037 0.587952
316 2 0.497704 0.889677 0.734261
152 1 0.261345 0.924903 0.88707
31 1 0.378582 0.874715 0.799824
338 2 0.360869 0.884959 0.968074
184 1 0.41945 0.777089 0.936262
91 1 0.251777 0.761916 0.873639
134 1 0.403689 0.998969 0.920229
305 2 0.694304 0.109741 0.193312
128 1 0.645418 0.17166 0.0176542
10 1 0.72762 0.236589 0.178042
166 1 0.710502 0.0331393 0.0438092
98 1 0.551984 0.0956385 0.104989
87 1 0.728657 0.139937 0.327095
247 1 0.582019 0.0372166 0.353559
45 1 0.641194 0.215184 0.422481
269 1 0.505623 0.203169 0.36333
28 1 0.587895 0.137154 0.256371
146 1 0.571773 0.0967474 0.652147
109 1 0.652391 0.231685 0.589485
139 1 0.71805 0.109082 0.709076
328 2 0.511244 0.201942 0.624471
155 1 0.637166 0.238731 0.740997
198 1 0.522169 0.0741062 0.501755
230 1 0.51448 0.224737 0.505281
38 1 0.66523 0.0797874 0.506395
318 2 0.502983 0.0294971 0.853226
278 1 0.696618 0.102267 0.860328
359 2 0.593826 0.123251 0.776271
179 1 0.573166 0.029189 0.964475
161 1 0.529992 0.154219 0.887514
112 1 0.668826 0.24485 0.887912
351 2 0.620059 0.352291 0.0676978
39 1 0.538136 0.450458 0.0785976
85 1 0.639958 0.363875 0.204529
18 1 0.693734 0.469551 0.0931654
159 1 0.729249 0.294585 0.0293292
177 1 0.572371 0.254451 0.136201
48 1 0.5825 0.345653 0.346071
125 1 0.744964 0.445715 0.279879
310 2 0.613004 0.470734 0.287745
55 1 0.652579 0.460272 0.410894
217 1 0.512172 0.499914 0.490897
92 1 0.738606 0.340469 0.481407
341 2 0.654484 0.261861 0.281631
56 1 0.66672 0.365663 0.662902
190 1 0.542757 0.464528 0.636898
342 2 0.74864 0.446456 0.617216
82 1 0.598074 0.358346 0.517409
202 1 0.66403 0.497322 0.549673
297 2 0.532167 0.278435 0.807886
220 1 0.574265 0.396646 0.807286
75 1 0.663313 0.41312 0.949978
95 1 0.552209 0.304584 0.985462
170 1 0.73893 0.357685 0.812108
335 2 0.534053 0.478986 0.91008
199 1 0.639565 0.711819 0.121152
58 1 0.60674 0.546623 0.193957
118 1 0.528728 0.699236 0.225983
46 1 0.602058 0.576101 0.0102492
306 2 0.680388 0.67342 0.0105092
270 1 0.656435 0.688324 0.29475
73 1 0.550456 0.585207 0.33914
13 1 0.608283 0.631761 0.484094
314 2 0.532463 0.579849 0.596286
41 1 0.518085 0.696044 0.658038
349 2 0.624638 0.738213 0.597586
142 1 0.645057 0.624451 0.65437
129 1 0.687781 0.503555 0.730239
115 1 0.65298 0.585992 0.860642
218 1 0.586597 0.734056 0.938079
255 1 0.506896 0.527823 0.780538
339 2 0.718786 0.530157 0.976073
333 2 0.552004 0.656138 0.779337
242 1 0.664369 0.731025 0.781647
191 1 0.547537 0.845142 0.150576
263 1 0.71541 0.857061 0.148678
309 2 0.647199 0.785357 0.221823
33 1 0.675494 0.989947 0.209057
277 1 0.515849 0.98814 0.209286
313 2 0.612242 0.949483 0.104854
197 1 0.629652 0.846662 0.0182781
290 2 0.507506 0.830384 0.0144254
280 1 0.60005 0.88907 0.300736
153 1 0.595611 0.928903 0.460834
44 1 0.658168 0.776771 0.414361
169 1 0.74742 0.848969 0.291136
80 1 0.725741 0.977338 0.356448
250 1 0.50982 0.754264 0.398158
54 1 0.594482 0.839986 0.679537
108 1 0.662016 0.977518 0.626174
249 1 0.688652 0.840581 0.549727
238 1 0.530422 0.797965 0.535348
23 1 0.50734 0.957948 0.609372
332 2 0.619814 0.836695 0.827251
105 1 0.601092 0.997968 0.77631
243 1 0.689369 0.947003 0.900665
186 1 0.520941 0.774497 0.790551
231 1 0.526672 0.89464 0.904435
182 1 0.72385 0.794183 0.897089
259 1 0.724789 0.896527 0.750228
325 2 0.927866 0.218687 0.172332
147 1 0.931625 0.170021 0.0313
352 2 0.774969 0.142561 0.035997
145 1 0.822055 0.124107 0.173473
265 1 0.979108 0.0846084 0.222902
193 1 0.888889 0.016951 0.0930774
126 1 0.817782 0.185413 0.444236
119 1 0.881239 0.185924 0.303133
323 2 0.781406 0.0655863 0.437663
347 2 0.822175 0.0648539 0.29531
353 2 0.950999 0.197037 0.452562
24 1 0.920925 0.083228 0.490257
258 1 0.902772 0.227782 0.58818
42 1 0.797145 0.106934 0.583562
111 1 0.943293 0.0741693 0.656905
17 1 0.81811 0.212806 0.933942
172 1 0.856989 0.143658 0.782444
234 1 0.8312 0.0627509 0.943308
83 1 0.975606 0.177475 0.871831
357 2 0.799441 0.0271553 0.823516
358 2 0.942357 0.0660634 0.907093
343 2 0.765941 0.214795 0.803903
312 2 0.929319 0.414506 0.0696623
30 1 0.839275 0.462269 0.139416
113 1 0.85974 0.303792 0.107393
329 2 0.787117 0.363729 0.203663
19 1 0.910815 0.355309 0.249461
14 1 0.89871 0.316319 0.433847
298 2 0.818158 0.404589 0.381693
64 1 0.96156 0.487108 0.452101
235 1 0.778975 0.292932 0.323241
131 1 0.804557 0.489585 0.490984
214 1 0.836049 0.434168 0.710935
301 2 0.774255 0.251843 0.562148
137 1 0.855031 0.370761 0.580758
356 2 0.911624 0.317486 0.68521
276 1 0.998346 0.419357 0.712718
133 1 0.779922 0.262842 0.688499
21 1 0.92294 0.439117 0.863712
337 2 0.829886 0.339409 0.908923
120 1 0.892067 0.290646 0.805478
183 1 0.938391 0.310798 0.96902
11 1 0.814681 0.424393 0.995175
141 1 0.936254 0.577528 0.185273
284 1 0.775508 0.604629 0.0783084
47 1 0.757869 0.591672 0.234837
241 1 0.912019 0.68151 0.0844058
213 1 0.95876 0.738418 0.21839
211 1 0.922062 0.545254 0.0263548
60 1 0.807101 0.73457 0.18758
43 1 0.887038 0.739944 0.389685
354 2 0.873466 0.646472 0.295075
165 1 0.769959 0.608158 0.387568
27 1 0.874549 0.517103 0.307374
68 1 0.996318 0.635609 0.378985
293 2 0.774471 0.741306 0.325535
53 1 0.923076 0.689988 0.67286
154 1 0.799495 0.577602 0.621208
148 1 0.752068 0.70103 0.505245
69 1 0.93355 0.501074 0.606225
229 1 0.898399 0.62562 0.502857
110 1 0.969416 0.664985 0.942444
224 1 0.805065 0.660496 0.927774
34 1 0.91543 0.72789 0.818535
76 1 0.786234 0.503198 0.841612
348 2 0.890851 0.565528 0.888873
26 1 0.900487 0.555405 0.752423
93 1 0.777209 0.64095 0.771991
304 2 0.949009 0.966208 0.220388
178 1 0.892079 0.854435 0.136032
158 1 0.823247 0.974354 0.21162
185 1 0.780262 0.762221 0.0408758
149 1 0.80588 0.913436 0.00466919
104 1 0.796067 0.847731 0.432568
160 1 0.89853 0.858217 0.293837
50 1 0.968714 0.885942 0.447315
123 1 0.883003 0.993903 0.377476
207 1 0.918841 0.944012 0.579106
295 2 0.788465 0.882443 0.623642
52 1 0.903373 0.858054 0.714424
66 1 0.88851 0.8044 0.548329
205 1 0.784197 0.966556 0.524856
264 1 0.751396 0.761133 0.660973
49 1 0.826346 0.996896 0.700965
8 1 0.949239 0.951 0.952522
260 1 0.838316 0.893831 0.852828
176 1 0.908898 0.804858 0.975593
296 2 0.799513 0.791814 0.781561
216 1 0.943057 0.996835 0.790965
ITEM: TIMESTEP
70000
ITEM: NUMBER OF ATOMS
360
ITEM: BOX BOUNDS pp pp pp
0.0000000000000000e+00 6.6943295008216896e+00
0.0000000000000000e+00 6.6943295008216896e+00
0.0000000000000000e+00 6.6943295008216896e+00
ITEM: ATOMS id type xs ys zs
225 1 0.204102 0.119453 0.154483
167 1 0.0583383 0.13493 0.111043
263 1 0.0682639 0.0349485 0.230265
107 1 0.0952277 0.20204 0.236771
100 1 0.144611 0.0689189 -0.00302983
230 1 0.193242 0.0755164 0.318792
320 2 0.0129774 0.182085 0.370439
16 1 0.0994965 0.112308 0.429361
208 1 0.250023 0.194941 0.448909
61 1 0.219298 0.00918188 0.474783
282 1 0.0434073 0.214569 0.640078
207 1 0.163118 0.106126 0.584971
326 2 0.131175 0.15571 0.713127
52 1 0.0635679 0.0412252 0.67937
287 1 0.222715 0.240617 0.625665
311 2 0.104449 0.210005 0.521169
222 1 0.243165 0.0598819 0.714366
252 1 0.16778 0.142662 0.847983
271 1 0.0693124 0.204669 0.963886
111 1 0.0254511 0.165013 0.796192
219 1 0.00981437 0.0246459 0.923867
88 1 0.0737957 0.364525 0.224745
86 1 0.0839425 0.435446 0.0815454
164 1 0.158492 0.295987 0.0887698
81 1 0.227688 0.433426 0.174313
201 1 0.0796793 0.414036 0.367359
171 1 0.223095 0.362288 0.307181
130 1 0.224885 0.446539 0.439391
138 1 0.128475 0.243048 0.369165
25 1 0.144424 0.329373 0.509055
77 1 0.187062 0.404742 0.648899
330 2 0.0865875 0.328855 0.639743
29 1 0.0360128 0.408543 0.734136
276 1 0.0656384 0.470043 0.538335
90 1 0.144733 0.276068 0.752361
140 1 0.0580464 0.453695 0.929651
181 1 0.191584 0.386524 0.968053
94 1 0.16147 0.409459 0.822084
350 2 0.0783602 0.335348 0.978777
346 2 0.218399 0.496481 0.900076
120 1 0.032596 0.307457 0.854902
7 1 0.234285 0.285967 0.871706
283 1 0.153045 0.712573 0.086296
223 1 0.124114 0.564904 0.162447
40 1 0.203117 0.535205 0.0274224
248 1 0.248809 0.651183 0.191311
150 1 0.0336463 0.682258 0.150745
221 1 0.204643 0.52459 0.306512
272 1 0.109228 0.552216 0.424528
212 1 0.231026 0.738456 0.402759
1 1 0.100755 0.702043 0.472627
286 1 0.130843 0.660481 0.291913
43 1 0.0305341 0.53884 0.281315
256 1 0.124747 0.544261 0.717735
356 2 0.0690736 0.614769 0.563374
266 1 0.120043 0.735901 0.624071
275 1 0.191568 0.60722 0.597129
334 2 0.237577 0.728316 0.544077
246 1 0.141606 0.586035 0.861363
360 2 0.1951 0.660304 0.970147
331 2 0.0265482 0.65445 0.881506
302 2 0.185142 0.667375 0.734529
103 1 0.227815 0.717811 0.845408
67 1 0.0484441 0.690414 0.763013
254 1 0.0550884 0.621865 0.99799
215 1 0.171671 0.865562 0.107501
299 2 0.144608 1.00099 0.136663
50 1 0.0413801 0.887216 0.207634
304 2 0.109476 0.778282 0.195765
158 1 0.0351514 0.820988 0.064504
51 1 0.195877 0.942731 0.245676
203 1 0.0182957 0.983777 0.0725432
213 1 0.118635 0.805893 0.330444
295 2 0.0539564 0.864111 0.449756
200 1 0.0822358 0.960607 0.363399
127 1 0.158598 0.845527 0.505308
72 1 0.262606 0.795708 0.254295
123 1 0.0704176 0.998323 0.526263
34 1 0.110018 0.908837 0.658899
116 1 0.0161762 0.837977 0.569459
315 2 0.211629 0.843328 0.621019
244 1 0.134125 0.817666 0.774264
260 1 0.0237156 0.880212 0.859539
281 1 0.118734 0.914543 0.978137
91 1 0.252011 0.909133 0.763171
340 2 0.183799 0.874448 0.87241
106 1 0.0931079 0.750055 0.926842
99 1 0.122557 0.992697 0.816156
8 1 0.248505 0.819889 0.98603
117 1 0.35833 0.219152 0.122439
253 1 0.328988 0.0717782 0.229739
294 2 0.326979 0.101636 0.0914378
305 2 0.435812 0.133361 0.178585
227 1 0.497192 0.153342 0.0404777
114 1 0.404803 0.182342 0.433734
2 1 0.415313 0.184814 0.288667
163 1 0.345153 0.0430762 0.383014
274 1 0.475982 0.0496942 0.458535
4 1 0.485608 0.0367354 0.275463
268 1 0.256425 0.212784 0.28787
112 1 0.348282 0.170202 0.692844
31 1 0.326316 0.101313 0.557004
316 2 0.347233 0.22142 0.558731
134 1 0.395103 0.00249101 0.66642
89 1 0.46861 0.173664 0.590326
98 1 0.4963 0.130996 0.726818
3 1 0.373405 0.0682259 0.970928
228 1 0.497221 0.140849 0.883776
180 1 0.32715 0.149599 0.85809
289 2 0.272654 0.22925 0.77143
36 1 0.39565 0.243605 0.959824
6 1 0.233529 0.189799 0.990083
210 1 0.314535 0.346189 0.0400709
85 1 0.468157 0.308473 0.0770479
300 2 0.405194 0.426121 0.126797
32 1 0.385221 0.331111 0.220066
39 1 0.3738 0.478843 0.0138378
345 2 0.25618 0.31152 0.166538
59 1 0.501193 0.453436 0.244049
71 1 0.344039 0.303265 0.388079
217 1 0.3744 0.434979 0.46699
317 2 0.438218 0.375249 0.383349
57 1 0.358081 0.453883 0.304013
48 1 0.462791 0.309019 0.493435
342 2 0.265605 0.479961 0.708782
236 1 0.420538 0.311031 0.645655
195 1 0.296753 0.329961 0.539571
132 1 0.29131 0.341369 0.738214
129 1 0.410933 0.444773 0.719416
190 1 0.491183 0.442592 0.577072
285 1 0.308903 0.482285 0.587843
46 1 0.480313 0.449981 0.878857
288 1 0.327641 0.42105 0.883734
292 2 0.430535 0.370493 0.965695
189 1 0.428504 0.301665 0.809829
124 1 0.29721 0.657633 0.0468226
9 1 0.345245 0.538286 0.165788
118 1 0.438319 0.618124 0.0555646
192 1 0.391628 0.711147 0.177737
226 1 0.479763 0.599208 0.226567
122 1 0.351406 0.639727 0.318306
232 1 0.375763 0.726037 0.444703
319 2 0.44739 0.537021 0.339161
273 1 0.271969 0.598944 0.45092
142 1 0.417023 0.574742 0.50479
344 2 0.419918 0.553044 0.631483
74 1 0.339994 0.66625 0.588799
41 1 0.439892 0.722443 0.702182
97 1 0.483639 0.712032 0.558569
84 1 0.293677 0.60082 0.731496
173 1 0.460068 0.696894 0.884781
121 1 0.435024 0.578788 0.786817
303 2 0.350265 0.700126 0.789357
151 1 0.308219 0.577963 0.896714
351 2 0.419456 0.551479 0.92955
338 2 0.319621 0.717702 0.934041
12 1 0.34866 0.858916 0.124715
357 2 0.481265 0.875879 0.0547555
218 1 0.404236 0.76742 0.0237691
267 1 0.263579 0.980311 0.0716175
37 1 0.409275 1.00816 0.119073
347 2 0.26875 0.759069 0.121957
206 1 0.362684 0.927817 0.253748
144 1 0.48595 0.844225 0.459851
15 1 0.270198 0.89708 0.372149
314 2 0.397001 0.908564 0.385668
204 1 0.41259 0.804061 0.311119
143 1 0.354477 0.811517 0.567823
257 1 0.374449 0.858876 0.71685
322 2 0.267063 0.894926 0.503457
186 1 0.487843 0.864318 0.619541
184 1 0.265685 0.745785 0.688747
102 1 0.383935 0.955913 0.506151
135 1 0.268344 0.950399 0.615053
231 1 0.359916 0.812692 0.86483
240 1 0.382575 0.913811 0.987758
128 1 0.379585 1.00723 0.823109
327 2 0.45925 0.924623 0.87994
152 1 0.251041 0.989829 0.9051
136 1 0.535059 0.198825 0.192542
159 1 0.683553 0.15953 0.128248
239 1 0.562025 0.0487445 0.135381
325 2 0.595157 0.236853 0.0857143
269 1 0.562138 0.163214 0.362183
191 1 0.641443 0.0809224 0.253702
28 1 0.604733 0.0171261 0.389673
235 1 0.739803 0.155277 0.35313
337 2 0.644242 0.251296 0.398773
166 1 0.664368 0.254215 0.259453
23 1 0.684636 0.0638988 0.511336
339 2 0.684957 0.15597 0.604998
126 1 0.603925 0.230572 0.668476
54 1 0.547163 0.0258308 0.611959
196 1 0.590617 0.210243 0.503565
249 1 0.651552 0.0935143 0.712318
95 1 0.636707 0.165818 0.972
155 1 0.614683 0.201776 0.814946
323 2 0.612708 0.0765841 0.874947
42 1 0.746189 0.114988 0.848221
105 1 0.52001 -0.0079651 0.986984
237 1 0.676656 0.0241209 1.00272
262 1 0.585371 0.348501 0.159982
18 1 0.663434 0.485538 0.0454763
177 1 0.670267 0.301728 0.0204771
306 2 0.694644 0.394705 0.109996
199 1 0.518203 0.485147 0.0891545
359 2 0.743444 0.272467 0.150354
297 2 0.576324 0.396817 0.0112084
310 2 0.61791 0.477488 0.186962
298 2 0.643843 0.494302 0.424621
175 1 0.521082 0.460595 0.416699
82 1 0.616644 0.361134 0.477281
73 1 0.637628 0.410371 0.308852
92 1 0.746154 0.327536 0.367156
245 1 0.531605 0.307716 0.329266
341 2 0.733941 0.381426 0.499021
53 1 0.699471 0.493466 0.553099
96 1 0.641109 0.370086 0.632484
332 2 0.535522 0.314033 0.591687
56 1 0.721588 0.495734 0.709668
109 1 0.534806 0.293573 0.918256
11 1 0.660754 0.390767 0.902544
301 2 0.693068 0.30296 0.752974
146 1 0.748061 0.265141 0.907041
161 1 0.571026 0.368571 0.766072
197 1 0.708863 0.739984 0.0887327
209 1 0.598479 0.62009 0.0817465
290 2 0.668925 0.698293 0.203224
47 1 0.721449 0.552724 0.180702
156 1 0.710521 0.724293 0.33699
27 1 0.705984 0.612327 0.43963
44 1 0.622649 0.737665 0.463038
270 1 0.609043 0.555131 0.319324
187 1 0.542784 0.753036 0.262827
293 2 0.747237 0.59717 0.292973
13 1 0.503578 0.650217 0.402718
264 1 0.726228 0.659372 0.745169
165 1 0.676808 0.643591 0.596025
154 1 0.534335 0.612391 0.66822
328 2 0.59796 0.500238 0.630759
202 1 0.575524 0.567477 0.507213
243 1 0.598506 0.756102 0.688932
255 1 0.700426 0.536647 0.894327
22 1 0.546382 0.567116 0.954085
78 1 0.581864 0.656552 0.816542
224 1 0.635109 0.715812 0.953228
309 2 0.518314 0.700265 1.00311
220 1 0.577894 0.513409 0.781266
277 1 0.611915 0.901919 0.0615081
58 1 0.711879 0.980019 0.167762
250 1 0.660356 0.840084 0.199246
233 1 0.517291 0.903932 0.173808
169 1 0.547051 0.771434 0.0960223
198 1 0.524188 0.903988 0.329826
153 1 0.665134 0.860705 0.366459
308 2 0.714286 0.956626 0.458729
324 2 0.629261 0.948917 0.258525
33 1 0.738858 0.993667 0.328706
238 1 0.598691 0.915385 0.511007
333 2 0.578506 0.796909 0.558523
148 1 0.709582 0.803226 0.575069
108 1 0.630519 0.910931 0.698351
115 1 0.659352 0.816167 0.83015
335 2 0.59784 0.932461 0.910195
149 1 0.53038 0.826923 0.932633
242 1 0.504565 0.841882 0.785007
278 1 0.699577 0.970888 0.840163
280 1 0.74137 0.877292 0.96265
179 1 0.538802 0.998064 0.795191
83 1 0.867665 0.182654 0.131386
352 2 0.942357 0.0815047 0.146051
10 1 0.794354 0.0910727 0.221488
193 1 0.858266 0.0104352 0.081035
79 1 0.93904 0.123627 0.0169213
147 1 0.785971 0.158874 0.00213812
247 1 0.820551 0.0283864 0.44821
38 1 0.872471 0.175715 0.421765
329 2 0.848027 0.0710756 0.332887
265 1 0.966268 0.0482023 0.376879
119 1 0.94661 0.141326 0.264808
205 1 0.82436 0.0930691 0.588369
24 1 0.978342 0.11331 0.539477
174 1 0.920523 0.135797 0.700755
258 1 0.891175 0.225028 0.585498
133 1 0.778034 0.21188 0.693158
259 1 0.799941 0.020949 0.736625
45 1 0.745252 0.225769 0.515621
49 1 0.900937 0.130434 0.865744
139 1 0.821743 0.0131135 0.926235
343 2 0.826422 0.21962 0.813941
30 1 0.907484 0.362006 0.182056
355 2 0.973686 0.250485 0.21391
113 1 0.811112 0.310045 0.0529056
211 1 0.80833 0.465936 0.101687
55 1 0.761012 0.381564 0.215128
183 1 0.941808 0.398379 0.0104349
20 1 0.99692 0.275556 0.0813987
14 1 0.859987 0.330877 0.458107
141 1 0.931913 0.467484 0.397514
65 1 0.96523 0.309052 0.328253
321 2 0.861712 0.391826 0.310618
125 1 0.769476 0.48144 0.38777
312 2 0.976546 0.422204 0.267171
353 2 0.985094 0.389375 0.480781
62 1 0.997221 0.270795 0.483427
19 1 0.826088 0.243904 0.262979
131 1 0.787815 0.341874 0.607963
137 1 0.877901 0.458188 0.539731
214 1 0.883139 0.446988 0.696217
168 1 0.967388 0.349216 0.603734
64 1 0.90986 0.283111 0.748763
170 1 0.928174 0.430137 0.855867
76 1 0.799339 0.368045 0.79234
75 1 0.807045 0.440621 0.94937
172 1 0.900622 0.274914 0.925088
241 1 0.885447 0.617606 0.0989135
291 2 0.941875 0.604061 0.214297
348 2 0.978734 0.536449 0.030141
178 1 0.813407 0.694846 0.216182
26 1 0.756838 0.620831 0.00921481
358 2 0.972227 0.704186 0.0198803
234 1 0.84939 0.75647 0.0228014
251 1 0.971026 0.500127 0.146617
160 1 0.987882 0.711576 0.304103
68 1 0.860536 0.618026 0.365356
284 1 0.852542 0.517107 0.239974
354 2 0.811629 0.548058 0.481632
307 2 1.00347 0.619575 0.392447
279 1 0.953787 0.754963 0.457646
296 2 0.813623 0.729303 0.639197
188 1 0.830592 0.576605 0.618183
70 1 0.9571 0.697566 0.613095
63 1 0.806205 0.686461 0.514025
21 1 0.987554 0.548876 0.648591
101 1 0.945295 0.585185 0.493768
93 1 0.834024 0.541496 0.800747
110 1 0.907892 0.610564 0.942728
216 1 0.786288 0.729333 0.880483
162 1 0.987973 0.555069 0.82745
69 1 0.890074 0.687302 0.74873
318 2 0.938502 0.914714 0.120964
145 1 0.903531 0.989936 0.24086
194 1 0.791417 0.871543 0.103394
185 1 0.916961 0.800756 0.185776
60 1 0.809959 0.836494 0.448648
35 1 0.966088 0.85754 0.345005
87 1 0.93635 0.931102 0.474805
104 1 0.794234 0.866157 0.271062
313 2 0.860276 0.927506 0.355613
336 2 0.861487 0.757943 0.331217
66 1 0.956395 0.957362 0.63
229 1 0.861102 0.831112 0.587893
349 2 0.849317 0.913924 0.700021
261 1 0.950882 0.827214 0.726514
80 1 0.771754 0.945508 0.586754
5 1 0.774717 0.815512 0.726735
17 1 0.917678 0.880917 0.983862
182 1 0.864045 0.893833 0.83474
176 1 0.931812 0.756734 0.893455
157 1 0.955515 1.00535 0.788371
ITEM: TIMESTEP
140000
ITEM: NUMBER OF ATOMS
360
ITEM: BOX BOUNDS pp pp pp
0.0000000000000000e+00 6.6943295008216896e+00
0.0000000000000000e+00 6.6943295008216896e+00
0.0000000000000000e+00 6.6943295008216896e+00
ITEM: ATOMS id type xs ys zs
201 1 0.167175 0.213036 0.163774
30 1 0.0715254 0.106469 0.229521
225 1 0.244208 0.184236 0.00933106
253 1 0.130901 0.0919613 0.0636219
289 2 0.0532885 0.0242818 0.141137
71 1 0.125489 0.192832 0.350607
208 1 0.184522 0.0439753 0.340446
152 1 0.0279808 0.064974 0.377893
135 1 0.165963 0.0932932 0.498872
312 2 0.236755 0.15176 0.274521
258 1 -0.00434271 0.244119 0.399577
64 1 0.0272542 0.138563 0.70439
52 1 0.23493 0.0635887 0.635704
259 1 0.143209 0.195419 0.628699
16 1 0.0232372 0.146567 0.537145
123 1 0.06976 0.0134115 0.598253
117 1 0.0915729 0.174581 0.93233
90 1 0.134453 0.0302795 0.779079
326 2 0.0533855 0.117139 0.825932
94 1 0.146939 0.235379 0.77685
292 2 0.203677 0.182457 0.883723
91 1 0.185708 0.0555707 0.926009
99 1 0.036226 0.0018109 0.911008
140 1 0.0767043 0.348481 0.0804771
162 1 0.155469 0.48882 0.135646
181 1 0.148654 0.375314 0.235161
320 2 0.0246011 0.429838 0.189581
210 1 0.229295 0.331826 0.101229
345 2 0.179574 0.41743 0.00479714
265 1 0.0306382 0.254585 0.234992
323 2 0.125917 0.244957 0.0347298
138 1 0.144491 0.252876 0.486508
353 2 0.121005 0.335171 0.353652
101 1 0.0702767 0.406582 0.44641
141 1 0.00486211 0.389817 0.305793
287 1 0.137253 0.35095 0.65359
311 2 0.237269 0.299558 0.593467
77 1 0.222355 0.459415 0.731356
356 2 0.101195 0.436506 0.571842
131 1 0.0202887 0.307661 0.55724
221 1 0.21985 0.415168 0.510248
330 2 0.0518487 0.258665 0.678568
252 1 0.185613 0.310125 0.929949
183 1 0.0790664 0.453681 0.948122
29 1 0.103938 0.383099 0.803943
342 2 0.231027 0.335619 0.756359
150 1 0.0713868 0.728435 0.243513
107 1 0.0690379 0.567337 0.234091
254 1 0.172499 0.681616 0.120079
8 1 0.0342198 0.720474 0.0398871
360 2 0.2253 0.694065 0.00294261
346 2 0.0805232 0.590363 0.0811921
286 1 0.192923 0.640058 0.305837
43 1 0.0656855 0.653185 0.379187
202 1 0.18264 0.710309 0.473815
164 1 0.12891 0.508431 0.35944
350 2 0.220004 0.524567 0.256636
307 2 0.103781 0.641871 0.596532
276 1 0.03246 0.746741 0.665756
275 1 0.184644 0.635616 0.727585
21 1 0.085393 0.513428 0.683513
25 1 0.219479 0.55542 0.601933
60 1 0.0106928 0.706123 0.514888
1 1 0.204068 0.753429 0.634119
160 1 0.0793688 0.556196 0.508656
93 1 0.127895 0.553199 0.833344
110 1 0.101358 0.695845 0.91645
106 1 0.238549 0.711993 0.857473
170 1 0.00140224 0.573634 0.960933
86 1 0.0151462 0.650678 0.793785
246 1 0.172062 0.56959 0.989593
219 1 0.134773 0.945219 0.0291707
223 1 0.204354 0.80853 0.198153
17 1 0.0750212 0.856982 0.143787
283 1 0.161465 0.804264 0.0112536
51 1 0.183747 0.989315 0.180495
35 1 0.0648741 0.959643 0.267197
230 1 0.101654 0.796871 0.380194
213 1 0.104965 0.954256 0.438504
294 2 0.164613 0.89196 0.324955
295 2 0.191901 0.842484 0.4528
72 1 0.240197 0.787288 0.345297
127 1 0.227504 0.92179 0.716727
116 1 0.0372402 0.903109 0.688716
266 1 0.0966456 0.843428 0.551003
143 1 0.233363 0.928231 0.560967
281 1 0.189152 0.908527 0.867472
244 1 0.130674 0.790817 0.776855
260 1 0.0528311 0.853712 0.927593
340 2 0.0613498 0.924223 0.819923
331 2 -0.00177513 0.795826 0.779093
3 1 0.306385 0.0309709 0.0348096
2 1 0.293535 0.0862129 0.177022
32 1 0.419461 0.178913 0.241935
227 1 0.380329 0.185944 0.0882207
12 1 0.349608 0.0647932 0.317181
114 1 0.265968 0.19977 0.38782
126 1 0.445735 0.143279 0.405609
316 2 0.447023 0.237921 0.4884
31 1 0.321861 0.0494258 0.48893
282 1 0.281856 0.232168 0.695004
207 1 0.2893 0.181087 0.537052
134 1 0.390771 0.124144 0.705869
54 1 0.467537 0.0987655 0.55427
189 1 0.416069 0.237957 0.611869
332 2 0.399359 0.194394 0.798884
242 1 0.485106 0.0529951 0.979541
228 1 0.259203 0.115695 0.795021
85 1 0.373101 0.154064 0.911782
57 1 0.39307 0.333922 0.145647
288 1 0.285461 0.481683 0.0455586
310 2 0.45171 0.307377 0.0156154
171 1 0.284364 0.429811 0.19423
268 1 0.292046 0.270396 0.245094
18 1 0.45936 0.44324 0.00981832
305 2 0.47926 0.303863 0.245606
217 1 0.257736 0.401889 0.352495
142 1 0.409118 0.413261 0.312556
92 1 0.403533 0.270271 0.351898
195 1 0.34428 0.333854 0.485593
48 1 0.491971 0.351083 0.44517
132 1 0.318939 0.370353 0.648085
130 1 0.356168 0.475015 0.545146
196 1 0.464475 0.391129 0.607504
129 1 0.470098 0.28136 0.883335
285 1 0.416902 0.415989 0.848144
7 1 0.30423 0.268977 0.839172
36 1 0.33629 0.333203 0.972492
161 1 0.417751 0.310624 0.737063
256 1 0.260633 0.434234 0.900245
81 1 0.283834 0.602868 0.147649
9 1 0.451181 0.654364 0.159496
124 1 0.324057 0.740085 0.0943078
309 2 0.410632 0.569508 0.0701695
317 2 0.289198 0.692344 0.235361
173 1 0.468299 0.700751 0.00294545
39 1 0.41617 0.495668 0.167955
44 1 0.421916 0.54173 0.408581
248 1 0.340906 0.693756 0.39418
59 1 0.343021 0.572077 0.280413
13 1 0.470486 0.683903 0.48788
186 1 0.467587 0.665458 0.323007
314 2 0.461734 0.527023 0.278776
273 1 0.243033 0.565898 0.441926
232 1 0.467904 0.578502 0.590096
184 1 0.345192 0.679498 0.719366
74 1 0.335109 0.643123 0.542428
97 1 0.49353 0.731897 0.634291
190 1 0.368499 0.50763 0.690914
41 1 0.392328 0.695422 0.864263
151 1 0.470661 0.568672 0.912093
84 1 0.300055 0.562378 0.827231
322 2 0.415905 0.567107 0.787279
40 1 0.331537 0.625753 0.985812
300 2 0.366615 0.509781 0.928314
215 1 0.300862 0.887442 0.0883056
128 1 0.394501 0.964708 0.186907
218 1 0.452627 0.814865 0.113167
122 1 0.383873 0.769769 0.255455
347 2 0.424357 0.973181 0.0651402
338 2 0.408682 0.935185 0.31596
61 1 0.288392 0.918512 0.423559
89 1 0.414382 0.836158 0.395634
163 1 0.46409 0.989153 0.433831
37 1 0.286461 0.920475 0.27394
231 1 0.360571 0.819953 0.664061
112 1 0.397071 0.941718 0.569151
222 1 0.365456 0.97655 0.710573
212 1 0.322122 0.782515 0.517207
257 1 0.498496 0.88405 0.684467
95 1 0.472221 0.961337 0.821193
267 1 0.302407 0.794068 0.955847
103 1 0.359836 0.850012 0.816469
240 1 0.315293 0.999869 0.870667
299 2 0.255786 0.921496 0.979466