
include ${pot}.lmp
include kalj.lmp
units lj
atom_style atomic

variable dimensions equal 3
variable density equal 1.2
variable fraca equal 0.8

dimension ${dimensions}
dimension 3
read_restart ${prevbasename}.final.lmprestart.${prevsteps}
read_restart equil/kalj_T0.7_n360_v300_180000_1.final.lmprestart.${prevsteps}
read_restart equil/kalj_T0.7_n360_v300_180000_1.final.lmprestart.180000
Reading restart file ...
  restart file = 15 Sep 2022, LAMMPS = 15 Sep 2022
  restoring atom style atomic from restart
  orthogonal box = (0 0 0) to (6.6943295 6.6943295 6.6943295)
  4 by 4 by 4 MPI processor grid
  restoring pair style lj/cut from restart
  360 atoms
  read_restart CPU = 0.010 seconds
include ${pot}_particles.lmp
include kalj_particles.lmp
mass * 1.0 #  set mass 1.0 for all types

pair_style lj/cut 2.5
#pair coeffs type1 type2 eps sigma
pair_coeff 1 1 1.0 1.00 2.5
pair_coeff 1 2 1.5 0.80 2.0
pair_coeff 2 2 0.5 0.88 2.2
pair_modify shift yes
reset_timestep 0

print "Setting up annealing run"
Setting up annealing run
dump 1 all atom ${dumptime} ${basename}.lammpstrj
dump 1 all atom 70000 ${basename}.lammpstrj
dump 1 all atom 70000 equil/kalj_T0.65_n360_v300_350000_1.lammpstrj
#dump_modify 1 sort id scale no

restart ${restarttime} ${basename}.restart
restart 350000 ${basename}.restart
restart 350000 equil/kalj_T0.65_n360_v300_350000_1.restart
restart ${steps} ${basename}.final.lmprestart
restart 350000 ${basename}.final.lmprestart
restart 350000 equil/kalj_T0.65_n360_v300_350000_1.final.lmprestart

thermo ${thermotime}
thermo 70000
timestep ${timestep}
timestep 0.003

neighbor 0.5 bin
neigh_modify every 1 delay ${neighborstep} check yes
neigh_modify every 1 delay 25 check yes

velocity all create ${temp} ${id} dist gaussian
velocity all create 0.65 ${id} dist gaussian
velocity all create 0.65 1 dist gaussian
fix 1 all nvt temp ${temp} ${temp} ${taut}
fix 1 all nvt temp 0.65 ${temp} ${taut}
fix 1 all nvt temp 0.65 0.65 ${taut}
fix 1 all nvt temp 0.65 0.65 0.3
Resetting global fix info from restart file:
  fix style: nvt, fix ID: 1
run ${steps}
run 350000
Generated 0 of 1 mixed pair_coeff terms from geometric mixing rule
All restart file global fix info was re-assigned
Neighbor list info ...
  update: every = 1 steps, delay = 25 steps, check = yes
  max neighbors/atom: 2000, page size: 100000
  master list distance cutoff = 3
  ghost atom cutoff = 3
  binsize = 1.5, bins = 5 5 5
  1 neighbor lists, perpetual/occasional/extra = 1 0 0
  (1) pair lj/cut, perpetual
      attributes: half, newton on
      pair build: half/bin/atomonly/newton
      stencil: half/bin/3d
      bin: standard
Per MPI rank memory allocation (min/avg/max) = 3.961 | 3.961 | 3.961 Mbytes
   Step          Temp          E_pair         E_mol          TotEng         Press     
         0   0.65          -6.5254771      0             -5.5531854      6.1402021    
     70000   0.65775434    -6.5998677      0             -5.6159768      5.799192     
    140000   0.64202309    -6.5971778      0             -5.6368182      5.8760962    
    210000   0.65008862    -6.5551419      0             -5.5827177      6.1000234    
    280000   0.68142457    -6.6644959      0             -5.6451983      5.4616862    
    350000   0.62954343    -6.5895358      0             -5.6478437      5.9849929    
Loop time of 21.3946 on 64 procs for 350000 steps with 360 atoms

Performance: 4240326.499 tau/day, 16359.284 timesteps/s, 5.889 Matom-step/s
99.7% CPU use with 64 MPI tasks x 1 OpenMP threads

MPI task timing breakdown:
Section |  min time  |  avg time  |  max time  |%varavg| %total
---------------------------------------------------------------
Pair    | 0.81794    | 0.86095    | 0.93816    |   2.6 |  4.02
Neigh   | 0.15554    | 0.16473    | 0.17553    |   1.1 |  0.77
Comm    | 16.02      | 16.578     | 17.18      |   9.6 | 77.49
Output  | 0.002858   | 0.0028665  | 0.0029298  |   0.0 |  0.01
Modify  | 2.4918     | 3.135      | 3.7217     |  22.6 | 14.65
Other   |            | 0.6532     |            |       |  3.05

Nlocal:          5.625 ave           8 max           3 min
Histogram: 2 0 6 0 21 0 22 0 11 2
Nghost:        535.062 ave         547 max         526 min
Histogram: 4 6 10 12 11 8 3 6 2 2
Neighs:        325.156 ave         457 max         170 min
Histogram: 2 3 3 11 11 6 13 7 3 5

Total # of neighbors = 20810
Ave neighs/atom = 57.805556
Neighbor list builds = 11003
Dangerous builds = 428
Total wall time: 0:00:21
