ITEM: TIMESTEP
0
ITEM: NUMBER OF ATOMS
360
ITEM: BOX BOUNDS pp pp pp
0.0000000000000000e+00 6.6943295008216896e+00
0.0000000000000000e+00 6.6943295008216896e+00
0.0000000000000000e+00 6.6943295008216896e+00
ITEM: ATOMS id type xs ys zs
100 1 0.140361 0.18505 0.0634051
37 1 0.217355 0.0460427 0.142198
79 1 0.0560976 0.0625558 0.104446
303 2 0.125746 0.00312518 0.235851
132 1 0.0106768 0.199477 0.139326
158 1 0.191559 0.154112 0.419295
298 2 0.0892326 0.203787 0.348773
143 1 0.0366603 0.040812 0.323715
19 1 0.0418964 0.107587 0.458092
107 1 0.137689 0.144267 0.251297
178 1 0.0581236 0.158102 0.610173
114 1 0.144196 0.0534126 0.550494
181 1 0.194855 0.209882 0.571799
282 1 0.0916828 0.0217334 0.692965
326 2 0.187363 0.118498 0.649901
285 1 0.00376404 0.0198397 0.571288
139 1 0.0663292 0.102427 0.80865
84 1 0.0323122 0.130128 0.973124
297 2 0.0893051 0.0181168 0.898296
124 1 0.218782 0.184422 0.92555
190 1 0.195619 0.189018 0.768776
219 1 0.176549 0.0501955 0.998745
50 1 0.137967 0.280988 0.186652
22 1 0.179137 0.431523 0.0897745
126 1 0.0932885 0.42274 0.227938
271 1 0.0359785 0.345769 0.0954158
75 1 0.0194121 0.493637 0.106716
57 1 0.0318648 0.319876 0.308337
118 1 0.0949563 0.461165 0.478163
188 1 0.0972354 0.290192 0.450943
338 2 0.130097 0.381289 0.351475
130 1 0.197183 0.272769 0.320214
217 1 0.246511 0.401911 0.411409
94 1 0.0858445 0.466567 0.640022
315 2 0.0449726 0.337651 0.559185
287 1 0.11377 0.318878 0.704163
208 1 0.17966 0.360579 0.566376
6 1 0.0681228 0.25379 0.841894
48 1 0.142298 0.45076 0.791752
283 1 0.146059 0.320107 0.961885
67 1 0.230948 0.323608 0.825669
176 1 0.128163 0.489353 0.941053
305 2 0.239081 0.41186 0.967278
351 2 0.222645 0.54246 0.132408
81 1 0.138152 0.594425 0.219629
241 1 0.146223 0.604111 0.047634
323 2 0.135823 0.703205 0.143261
320 2 0.00916297 0.530062 0.226476
31 1 0.0111157 0.632741 0.14735
96 1 0.217324 0.655324 0.334392
248 1 0.107867 0.637709 0.461618
127 1 0.165201 0.514037 0.356955
18 1 0.0329563 0.607334 0.330577
273 1 0.0971816 0.738554 0.282329
78 1 0.0314562 0.602265 0.58021
250 1 0.21663 0.503236 0.55031
69 1 0.115236 0.721708 0.623265
131 1 0.16968 0.595628 0.670229
336 2 0.0146742 0.735734 0.53471
268 1 0.0121554 0.622394 0.978811
30 1 0.0589464 0.687877 0.764049
183 1 0.0242899 0.539802 0.845469
179 1 0.144931 0.630499 0.89151
356 2 0.211323 0.569077 0.803589
209 1 0.227269 0.729538 0.979969
228 1 0.212193 0.70771 0.769544
325 2 0.209617 0.860854 0.0264934
7 1 0.129465 0.927601 0.106302
71 1 0.205571 0.803088 0.1487
90 1 0.103573 0.77696 0.0400067
225 1 0.0143593 0.948946 0.194575
103 1 0.0234439 0.789901 0.159838
40 1 0.115403 0.888278 0.29835
154 1 0.19882 0.774025 0.499056
151 1 0.166819 0.99767 0.399523
291 2 0.177494 0.78527 0.364407
213 1 0.0566179 0.79013 0.419835
187 1 0.231762 0.814882 0.655493
106 1 0.115713 0.904549 0.513108
244 1 0.0590932 0.854957 0.643995
319 2 0.153491 0.896223 0.706224
34 1 0.236231 0.988408 0.686608
20 1 0.18584 0.987375 0.825332
216 1 0.118518 0.908603 0.955306
91 1 0.0115995 0.935284 0.793493
52 1 0.141327 0.839652 0.826289
260 1 0.0374867 0.754457 0.904504
306 2 0.0243887 0.813916 0.777937
1 1 0.367094 0.0338377 0.210618
163 1 0.283745 0.206692 0.20407
161 1 0.441489 0.0495097 0.0827947
135 1 0.31944 0.142092 0.0631042
333 2 0.409633 0.239372 0.00242342
257 1 0.401984 0.178522 0.281444
87 1 0.399187 0.143271 0.424415
328 2 0.418473 0.0723163 0.324334
117 1 0.341132 0.00470704 0.409881
307 2 0.286028 0.190219 0.339422
200 1 0.257265 0.0716847 0.305402
192 1 0.417878 0.0368943 0.594574
256 1 0.30093 0.102067 0.532134
205 1 0.321861 0.128621 0.690979
51 1 0.392219 0.235395 0.590218
172 1 0.481464 0.120617 0.710258
112 1 0.452805 0.121053 0.950603
224 1 0.339406 0.197165 0.840412
8 1 0.358246 0.0259698 0.799979
239 1 0.320741 0.0338522 0.956766
207 1 0.498059 0.248343 0.87759
300 2 0.253327 0.0882259 0.853142
220 1 0.341057 0.406427 0.0732458
9 1 0.415823 0.266356 0.14678
276 1 0.264381 0.281552 0.0419364
97 1 0.252895 0.441482 0.233723
346 2 0.295006 0.340977 0.171604
168 1 0.448007 0.420262 0.231797
5 1 0.473569 0.358792 0.0100808
61 1 0.334645 0.320025 0.312565
313 2 0.483947 0.388096 0.365578
82 1 0.463984 0.297108 0.450051
153 1 0.357404 0.484546 0.348133
92 1 0.307641 0.261283 0.445808
240 1 0.453698 0.446821 0.485876
279 1 0.427945 0.436945 0.667025
148 1 0.332511 0.37986 0.562991
212 1 0.263959 0.442522 0.681929
39 1 0.414803 0.270096 0.737165
334 2 0.457485 0.334119 0.578797
21 1 0.276668 0.282126 0.675835
74 1 0.354079 0.33134 0.92152
115 1 0.463037 0.394786 0.832271
12 1 0.293811 0.460297 0.843133
347 2 0.350476 0.385326 0.759765
169 1 0.475546 0.630566 0.166619
140 1 0.374409 0.646665 0.0370885
102 1 0.271631 0.654138 0.162428
218 1 0.360273 0.538203 0.165164
16 1 0.367041 0.630932 0.295936
335 2 0.437939 0.542733 0.278908
146 1 0.450327 0.60787 0.423685
357 2 0.30507 0.730859 0.40724
62 1 0.293342 0.580309 0.442494
358 2 0.268622 0.549421 0.292625
44 1 0.311511 0.581433 0.729433
77 1 0.439718 0.663316 0.654955
180 1 0.268484 0.680602 0.591588
272 1 0.351563 0.552807 0.590442
226 1 0.385522 0.714898 0.505265
204 1 0.269978 0.532399 0.988164
60 1 0.331199 0.635116 0.878656
249 1 0.426984 0.507198 0.981153
56 1 0.440559 0.545594 0.778253
186 1 0.48464 0.659557 0.895143
288 1 0.394613 0.746709 0.788138
353 2 0.353059 0.868581 0.184794
32 1 0.355819 0.797718 0.0587485
15 1 0.299756 0.937167 0.0814947
150 1 0.45439 0.905932 0.13052
194 1 0.402689 0.752701 0.19499
184 1 0.251809 0.926212 0.232218
222 1 0.394474 0.9045 0.311586
266 1 0.427331 0.758166 0.360235
269 1 0.409827 0.896345 0.495708
237 1 0.275061 0.864996 0.405182
267 1 0.27863 0.782251 0.279005
98 1 0.270116 0.93876 0.535027
332 2 0.312896 0.821448 0.55306
173 1 0.365283 0.890704 0.644787
321 2 0.471669 0.831121 0.730481
350 2 0.344659 0.771748 0.675483
125 1 0.482857 0.812555 0.613588
2 1 0.499099 0.947865 0.717277
134 1 0.437153 0.918955 0.859572
72 1 0.464583 0.800625 0.939307
116 1 0.300308 0.878716 0.774663
198 1 0.280993 0.880008 0.925145
330 2 0.285609 0.761224 0.86477
360 2 0.397172 0.93412 0.999446
253 1 0.541071 0.202049 0.0430725
136 1 0.681045 0.144826 0.0903711
83 1 0.725388 0.00541409 0.0480291
145 1 0.632083 0.242603 0.223689
149 1 0.584173 0.0188412 0.114124
65 1 0.653955 0.0858033 0.229756
25 1 0.520217 0.151897 0.188796
238 1 0.51552 0.00925129 0.245853
193 1 0.503716 0.0259863 0.432782
177 1 0.547035 0.154772 0.339417
277 1 0.655083 0.121519 0.462434
341 2 0.599197 0.0338349 0.347384
289 2 0.633279 0.231561 0.3959
231 1 0.740372 0.0461562 0.362548
54 1 0.583154 0.0308877 0.595607
86 1 0.521532 0.172114 0.523641
302 2 0.594376 0.147292 0.658053
33 1 0.645396 0.0262503 0.732124
309 2 0.726647 0.147345 0.726368
133 1 0.717884 0.125747 0.607402
142 1 0.602455 0.0938781 0.960108
214 1 0.606363 0.186961 0.78006
242 1 0.532306 0.0351466 0.84118
331 2 0.681073 0.0798108 0.846551
246 1 0.748618 0.134684 0.92924
47 1 0.656554 0.477275 0.11053
58 1 0.680228 0.30397 0.0920448
245 1 0.545226 0.358057 0.13527
236 1 0.745579 0.346329 0.371845
175 1 0.602876 0.357106 0.423782
185 1 0.636446 0.385407 0.282403
337 2 0.588618 0.468294 0.482511
191 1 0.744823 0.485842 0.266609
27 1 0.510348 0.290605 0.293789
28 1 0.56671 0.401004 0.603291
157 1 0.688918 0.268728 0.684562
29 1 0.732993 0.393775 0.518437
359 2 0.527302 0.38899 0.723226
155 1 0.690961 0.42338 0.685268
247 1 0.534861 0.262077 0.649217
232 1 0.636217 0.272579 0.540213
263 1 0.587288 0.447284 0.947687
159 1 0.611437 0.339458 0.810153
278 1 0.657588 0.260879 0.954162
109 1 0.727658 0.441668 0.847194
342 2 0.720242 0.423231 0.975741
166 1 0.583622 0.485572 0.783785
199 1 0.611494 0.550491 0.241335
196 1 0.570986 0.609464 0.0195727
280 1 0.614418 0.689341 0.16078
312 2 0.709804 0.662452 0.0838353
259 1 0.73754 0.641916 0.231927
120 1 0.509394 0.505879 0.113389
144 1 0.611339 0.614534 0.448512
327 2 0.649574 0.638685 0.331872
41 1 0.530129 0.648424 0.294471
123 1 0.696515 0.510122 0.409974
202 1 0.746954 0.68076 0.422993
189 1 0.543207 0.501458 0.355747
26 1 0.652649 0.598196 0.707113
46 1 0.642737 0.704048 0.575421
252 1 0.67606 0.523917 0.56107
223 1 0.521859 0.56016 0.56217
301 2 0.749872 0.630017 0.613768
329 2 0.519508 0.692048 0.54112
45 1 0.55842 0.731166 0.710488
343 2 0.540538 0.54424 0.681149
165 1 0.689731 0.732296 0.839989
59 1 0.748884 0.695945 0.967458
197 1 0.626976 0.603946 0.880704
317 2 0.548494 0.613635 0.787972
310 2 0.504253 0.525193 0.889706
210 1 0.735795 0.549612 0.995831
235 1 0.643962 0.897994 0.183065
254 1 0.729798 0.769567 0.139131
274 1 0.658931 0.878432 0.0351017
4 1 0.526468 0.787001 0.0881533
215 1 0.522727 0.827357 0.243888
234 1 0.703778 0.824127 0.480435
258 1 0.560753 0.901784 0.483738
233 1 0.643748 0.915033 0.344685
99 1 0.577679 0.756236 0.422146
270 1 0.664483 0.760179 0.298562
290 2 0.501118 0.871315 0.372203
265 1 0.708969 0.976653 0.508108
3 1 0.632658 0.891762 0.629493
308 2 0.739872 0.947848 0.70641
111 1 0.721045 0.762465 0.689792
311 2 0.502154 0.93662 0.592392
85 1 0.67075 0.962384 0.907933
295 2 0.716901 0.836161 0.913059
304 2 0.58688 0.869555 0.92186
53 1 0.619182 0.871241 0.798087
340 2 0.545903 0.768944 0.842141
182 1 0.529162 0.960853 0.984277
243 1 0.598332 0.754098 0.961046
171 1 0.930024 0.0728922 0.186523
95 1 0.867858 0.112611 0.0347046
38 1 0.802996 0.164612 0.164674
314 2 0.765439 0.213775 0.0271157
108 1 0.774532 0.22861 0.479875
195 1 0.971078 0.181985 0.291354
105 1 0.868305 0.131839 0.398285
296 2 0.818495 0.0932701 0.266665
63 1 0.867087 0.000205927 0.480201
73 1 0.758032 0.21022 0.312481
35 1 0.958048 0.234355 0.490156
275 1 0.946116 0.0692776 0.70864
70 1 0.898094 0.129519 0.572257
119 1 0.842386 0.189063 0.718609
66 1 0.80371 0.0208399 0.633806
318 2 0.776918 0.102983 0.500587
322 2 0.98371 0.202163 0.763708
355 2 0.873471 0.206327 0.93976
261 1 0.90879 0.109029 0.853495
42 1 0.789386 0.0454937 0.787929
43 1 0.750553 0.238904 0.828312
156 1 0.805527 0.414461 0.0824498
292 2 0.928424 0.402072 0.071788
10 1 0.91929 0.392734 0.203029
17 1 0.781624 0.335984 0.221129
281 1 0.865924 0.261491 0.0686879
348 2 0.906179 0.264635 0.203707
13 1 0.891258 0.290468 0.334679
203 1 0.830552 0.452804 0.427027
201 1 0.957452 0.472575 0.321452
339 2 0.842926 0.416777 0.296938
138 1 0.971375 0.378763 0.445755
345 2 0.855843 0.322143 0.468036
255 1 0.809185 0.297323 0.604462
14 1 0.929253 0.403706 0.593253
80 1 0.824453 0.372353 0.728818
174 1 0.960704 0.258701 0.659365
68 1 0.876949 0.498681 0.801844
264 1 0.901285 0.283781 0.831401
88 1 0.826394 0.359835 0.938182
147 1 0.985706 0.416103 0.922388
286 1 0.973719 0.271856 0.969831
164 1 0.982466 0.39675 0.75075
104 1 0.893109 0.690078 0.24059
284 1 0.882916 0.537668 0.184006
128 1 0.835214 0.635199 0.0806158
349 2 0.760586 0.549184 0.151647
36 1 0.943899 0.73157 0.0442942
55 1 0.901058 0.519183 0.000872074
162 1 0.95426 0.540325 0.46819
89 1 0.838524 0.585853 0.340569
160 1 0.919877 0.703813 0.428859
251 1 0.823129 0.657278 0.70484
137 1 0.838917 0.727207 0.549389
316 2 0.894285 0.603514 0.600357
170 1 0.968809 0.548703 0.700745
101 1 0.966897 0.7174 0.651082
230 1 0.826436 0.502807 0.634574
293 2 0.754623 0.521295 0.736056
121 1 0.809872 0.584576 0.507359
11 1 0.787827 0.601352 0.84968
344 2 0.868166 0.667177 0.95883
262 1 0.928596 0.655738 0.833955
152 1 0.867193 0.813842 0.155147
299 2 0.895486 0.925384 0.22072
122 1 0.870662 0.967179 0.0916644
294 2 0.767566 0.899076 0.109231
113 1 0.99036 0.886214 0.0526615
23 1 0.755296 0.989613 0.199883
129 1 0.813809 0.838769 0.00623346
211 1 0.95052 0.823282 0.305914
221 1 0.89035 0.987099 0.32952
141 1 0.837291 0.826626 0.420483
93 1 0.786121 0.854465 0.282963
352 2 0.761762 0.92056 0.395612
64 1 0.986448 0.924275 0.420553
76 1 0.939796 0.840911 0.538117
167 1 0.796488 0.876816 0.592443
227 1 0.932742 0.931648 0.660858
206 1 0.872651 0.796692 0.736117
324 2 0.845918 0.760906 0.86434
110 1 0.971138 0.98932 0.947993
354 2 0.890872 0.956811 0.807108
49 1 0.919151 0.851386 0.879664
24 1 0.826799 0.985745 0.919245
229 1 0.786635 0.886032 0.816603
ITEM: TIMESTEP
60000
ITEM: NUMBER OF ATOMS
360
ITEM: BOX BOUNDS pp pp pp
0.0000000000000000e+00 6.6943295008216896e+00
0.0000000000000000e+00 6.6943295008216896e+00
0.0000000000000000e+00 6.6943295008216896e+00
ITEM: ATOMS id type xs ys zs
171 1 0.0844697 0.180574 0.175518
152 1 0.0922632 0.0267954 0.155762
135 1 0.0551031 0.136093 0.0295347
116 1 0.194805 0.0504174 0.00268607
239 1 0.188109 0.223235 0.0533163
331 2 0.0729143 -0.00185278 0.0285167
100 1 0.234067 0.113238 0.155211
37 1 0.21584 0.247529 0.229483
143 1 0.0500274 0.0603876 0.393433
290 2 0.21572 0.168981 0.35448
79 1 0.172242 0.0685711 0.293203
313 2 0.192905 0.0559327 0.417538
151 1 0.254501 0.194643 0.473655
107 1 0.10184 0.210707 0.351506
325 2 0.0387912 0.113035 0.280445
92 1 0.101809 0.157841 0.508495
181 1 0.124403 0.107692 0.668148
326 2 0.218838 0.114695 0.583781
95 1 0.00257768 0.113321 0.881953
139 1 0.0708542 0.222795 0.77207
124 1 0.150788 0.160471 0.895301
334 2 0.117192 0.1027 0.791997
7 1 0.117212 0.00760059 0.872824
224 1 0.236758 0.201058 0.771613
351 2 0.0756223 0.35602 0.106771
84 1 0.223766 0.379704 0.126412
195 1 0.0579137 0.31603 0.244155
126 1 0.0109357 0.4578 0.110932
48 1 0.242543 0.492124 0.000501388
132 1 0.143598 0.488515 0.212545
322 2 0.142042 0.459335 0.0899625
127 1 0.100956 0.400428 0.386618
217 1 0.221394 0.458411 0.439258
200 1 0.227221 0.308377 0.373195
307 2 0.17704 0.369645 0.268175
272 1 0.198488 0.424804 0.600777
315 2 0.0662225 0.399893 0.599968
214 1 0.0440507 0.281919 0.636366
264 1 0.135216 0.371487 0.72488
287 1 0.207531 0.24446 0.627551
170 1 0.0500831 0.508193 0.66371
174 1 0.0771586 0.490465 0.516548
50 1 0.142365 0.322037 0.506569
43 1 0.100454 0.469999 0.845265
355 2 0.049769 0.350459 0.8351
286 1 0.0464297 0.265252 0.923405
6 1 0.182875 0.312387 0.859824
276 1 0.137853 0.380608 0.986793
31 1 0.202072 0.65239 0.0431026
94 1 0.0795793 0.61463 0.122
204 1 0.205903 0.659928 0.231263
40 1 0.163023 0.661962 0.477972
130 1 0.140505 0.56813 0.346619
64 1 0.0230875 0.615114 0.448827
57 1 0.100133 0.738077 0.353398
201 1 0.00254595 0.61085 0.265993
187 1 0.246286 0.717342 0.613957
208 1 0.188683 0.526711 0.733861
68 1 0.0996933 0.636971 0.62396
316 2 0.157959 0.712447 0.709957
101 1 0.187825 0.593745 0.889237
67 1 0.048277 0.60193 0.776798
106 1 0.0456028 0.664201 0.94396
69 1 0.140755 0.731827 0.835067
283 1 0.0928148 0.531026 0.996408
71 1 0.188206 0.92069 0.0656596
209 1 0.11069 0.881572 0.225066
103 1 0.0977649 0.776741 0.0726824
198 1 0.255571 0.960452 0.2101
248 1 0.229712 0.785741 0.153989
211 1 0.0191291 0.760644 0.205258
303 2 0.00929509 0.757237 0.441834
150 1 0.145128 0.910923 0.388925
1 1 0.230664 0.800737 0.302293
15 1 0.248722 0.793658 0.451219
158 1 0.00894211 0.945317 0.483007
221 1 -0.00778767 0.985627 0.271875
225 1 0.248526 0.885313 0.585334
63 1 0.0253617 0.916955 0.647446
356 2 0.131405 0.854893 0.67678
256 1 0.185485 0.957218 0.72013
282 1 0.098511 0.805791 0.550338
141 1 0.0440557 0.771523 0.706558
42 1 0.129968 1.00442 0.550475
20 1 0.20665 0.884043 0.900513
52 1 0.0526881 0.866966 0.950889
244 1 0.0800132 0.883655 0.799629
319 2 0.156863 0.771344 0.950667
180 1 0.236934 0.807378 0.760673
32 1 0.333797 0.130969 0.0490143
328 2 0.337279 0.150836 0.215898
266 1 0.393614 0.0218317 0.236349
238 1 0.454999 0.170498 0.171291
25 1 0.31378 0.100571 0.344128
255 1 0.413527 0.052993 0.443225
189 1 0.402731 0.219872 0.453887
269 1 0.481948 0.140788 0.32955
236 1 0.354787 0.247731 0.312425
257 1 0.277955 0.0202206 0.503865
157 1 0.348825 0.159923 0.588966
114 1 0.28188 0.0575703 0.670185
341 2 0.464775 0.1111 0.537536
133 1 0.460965 0.0999391 0.688643
87 1 0.489576 0.236372 0.612077
190 1 0.398737 0.235918 0.738316
205 1 0.397391 0.00667824 0.587393
112 1 0.452719 0.160399 0.872857
134 1 0.456902 0.0295624 0.951719
305 2 0.341589 0.100698 0.919804
218 1 0.304831 0.222826 0.89885
333 2 0.3396 0.12784 0.771375
219 1 0.247529 0.0647107 0.824505
98 1 0.395041 0.0205715 0.79416
9 1 0.331166 0.253591 0.132494
140 1 0.390302 0.392993 0.106975
97 1 0.409873 0.482835 0.230608
156 1 0.456206 0.334039 0.244135
245 1 0.355855 0.397216 0.385699
240 1 0.490998 0.456037 0.351449
168 1 0.305207 0.368627 0.24012
82 1 0.45389 0.387451 0.690125
96 1 0.361931 0.467517 0.59579
28 1 0.457844 0.365013 0.520396
337 2 0.365212 0.296588 0.628688
62 1 0.290514 0.350802 0.714788
232 1 0.298845 0.335252 0.528665
21 1 0.341677 0.494734 0.741529
74 1 0.38914 0.366246 0.839726
220 1 0.456931 0.298156 0.96499
120 1 0.302398 0.35779 0.990399
310 2 0.363156 0.466198 0.932706
58 1 0.474029 0.491337 0.813757
212 1 0.25935 0.448549 0.852411
199 1 0.497602 0.444064 0.962281
169 1 0.438315 0.610879 0.161654
353 2 0.4773 0.675709 0.0491515
216 1 0.359039 0.698447 0.0606853
59 1 0.410004 0.542071 0.0366064
81 1 0.297812 0.560619 0.133009
4 1 0.361929 0.735391 0.216694
323 2 0.334951 0.620771 0.250692
154 1 0.381273 0.544131 0.430265
146 1 0.46227 0.626162 0.32131
273 1 0.288989 0.664163 0.357446
61 1 0.267183 0.51092 0.296454
291 2 0.439402 0.587038 0.555661
46 1 0.356561 0.608498 0.655715
250 1 0.25983 0.560424 0.532662
186 1 0.482493 0.701598 0.617696
222 1 0.374185 0.689192 0.50952
77 1 0.488326 0.539323 0.662825
332 2 0.365377 0.719377 0.827205
330 2 0.299122 0.60382 0.989297
12 1 0.365706 0.58074 0.889469
56 1 0.260049 0.658825 0.767673
34 1 0.281245 0.713814 0.924395
102 1 0.438194 0.736265 0.930478
279 1 0.446978 0.63978 0.775092
18 1 0.465093 0.797051 0.124246
72 1 0.350692 0.959241 0.0864052
228 1 0.292499 0.818097 0.023084
51 1 0.410774 0.882654 0.236325
358 2 0.341977 0.843519 0.140212
280 1 0.508221 0.983341 0.115536
267 1 0.388356 0.783705 0.365181
184 1 0.484923 0.923403 0.365336
117 1 0.315954 0.942844 0.34703
357 2 0.485348 0.75267 0.282782
111 1 0.383043 0.893168 0.481727
237 1 0.350486 0.902207 0.69558
321 2 0.361586 0.801209 0.58588
288 1 0.370949 0.75691 0.715874
350 2 0.48758 0.804959 0.723224
44 1 0.479755 0.874349 0.593503
2 1 0.424565 0.858129 0.826179
302 2 0.279814 0.941715 0.803319
360 2 0.332306 0.827568 0.906252
196 1 0.432659 0.872976 0.989677
8 1 0.322214 0.964079 0.922739
294 2 0.719814 0.200054 0.142573
27 1 0.647355 0.201868 0.0105417
145 1 0.628286 0.110757 0.156558
5 1 0.479647 0.161207 0.0230999
182 1 0.65357 0.0475772 0.0109717
17 1 0.581839 0.245953 0.24671
277 1 0.591946 0.0237511 0.416101
177 1 0.651393 0.125252 0.31354
86 1 0.566322 0.165817 0.480415
226 1 0.54894 0.0274215 0.257213
263 1 0.640887 0.147104 0.618362
227 1 0.624507 0.0495518 0.730872
80 1 0.556563 0.0157251 0.589536
66 1 0.714208 0.0942283 0.494042
359 2 0.690614 0.139222 0.797773
161 1 0.597952 0.114165 0.876321
304 2 0.52449 0.0514621 0.810768
289 2 0.557194 0.218395 0.928171
159 1 0.555823 0.204947 0.762284
75 1 0.678809 0.322836 0.112759
55 1 0.537585 0.446907 0.122469
344 2 0.659733 0.487749 0.144725
253 1 0.521769 0.297358 0.109239
268 1 0.646783 0.491502 0.00707006
335 2 0.740053 0.404323 0.0152794
38 1 0.615064 0.394885 0.275246
29 1 0.636576 0.399344 0.452667
175 1 0.516874 0.296249 0.385499
73 1 0.664212 0.267254 0.375273
223 1 0.535395 0.500638 0.507909
148 1 0.677157 0.451826 0.686874
26 1 0.601176 0.336018 0.630683
166 1 0.714017 0.2686 0.682394
300 2 0.56222 0.433688 0.737424
108 1 0.705635 0.255923 0.523975
155 1 0.762962 0.401429 0.560479
346 2 0.641386 0.46647 0.564376
347 2 0.585347 0.292245 0.508266
142 1 0.654572 0.470234 0.852802
136 1 0.610794 0.346562 0.964402
39 1 0.545764 0.349957 0.829036
109 1 0.66912 0.257962 0.851761
343 2 0.668347 0.372354 0.781486
185 1 0.556454 0.698329 0.193593
179 1 0.56655 0.593792 0.0822943
47 1 0.685955 0.62789 0.195764
349 2 0.685472 0.651263 0.0616109
197 1 0.59647 0.73459 0.00806157
153 1 0.564271 0.543759 0.232777
327 2 0.565198 0.560823 0.374574
191 1 0.59571 0.699774 0.343478
123 1 0.520108 0.646171 0.463082
89 1 0.680669 0.531078 0.326021
144 1 0.660147 0.575708 0.478559
115 1 0.639564 0.606915 0.62513
301 2 0.57879 0.693704 0.71296
202 1 0.649667 0.722215 0.507853
60 1 0.527166 0.608579 0.922919
53 1 0.692556 0.73636 0.78922
210 1 0.598413 0.593177 0.769359
93 1 0.675799 0.631788 0.921991
242 1 0.551547 0.749357 0.829274
16 1 0.591661 0.892802 0.0357195
312 2 0.592021 0.801071 0.125909
259 1 0.714992 0.803374 0.086822
233 1 0.667217 0.963844 0.153546
173 1 0.561062 0.861471 0.233615
243 1 0.753016 0.91546 -0.00171675
125 1 0.690137 0.774801 0.238238
192 1 0.71212 0.82636 0.396237
311 2 0.592702 0.836765 0.348905
247 1 0.692019 0.946957 0.302785
3 1 0.507412 0.798204 0.473168
308 2 0.491731 0.955202 0.491316
54 1 0.739071 0.997672 0.618984
234 1 0.623819 0.784382 0.646997
207 1 0.505966 0.951109 0.724335
329 2 0.614203 0.924003 0.647429
206 1 0.623426 0.899844 0.504562
110 1 0.724856 0.885925 0.740806
274 1 0.678954 0.8379 0.897799
172 1 0.564601 0.951105 0.87406
318 2 0.534546 0.822001 0.929336
295 2 0.609367 0.853538 0.775825
278 1 0.711015 1.01411 0.879036
85 1 0.845253 0.215868 0.146878
231 1 0.7787 0.0982531 0.2302
281 1 0.946464 0.105075 0.142058
314 2 0.893714 0.0691743 0.249469
149 1 0.773213 0.113183 0.0655122
296 2 0.969768 0.24099 0.181928
246 1 0.943041 0.0219458 0.0120113
265 1 0.793377 0.196305 0.375468
235 1 0.93036 0.183121 0.292284
193 1 0.896448 0.0608582 0.408198
178 1 0.975362 0.190638 0.431728
309 2 0.777266 0.0518331 0.351364
352 2 0.887235 0.0766123 0.644779
35 1 0.848839 0.162727 0.534391
119 1 0.927969 0.18331 0.695498
105 1 0.779165 0.129551 0.699338
317 2 0.97181 0.211078 0.566238
23 1 0.98739 0.0763523 0.559141
275 1 0.999031 0.0452404 0.730228
229 1 0.852628 0.0752645 0.820509
83 1 0.750492 0.145628 0.91806
297 2 0.945434 0.211741 0.816913
11 1 0.808802 0.246938 0.799363
354 2 0.741905 0.0213784 0.747248
147 1 0.891628 0.168739 0.970511
292 2 0.81978 0.0355836 0.933708
65 1 0.866983 0.420778 0.0438098
88 1 0.777642 0.275292 0.00504772
30 1 0.755828 0.428754 0.204288
271 1 0.897242 0.364503 0.224286
342 2 0.804898 0.337619 0.125112
22 1 0.963927 0.291808 0.0698126
19 1 0.745325 0.2744 0.241755
345 2 0.859626 0.288108 0.315877
13 1 0.765751 0.386351 0.351002
203 1 0.838012 0.307009 0.464136
14 1 0.963275 0.321916 0.359857
320 2 0.865311 0.450468 0.36657
188 1 0.958826 0.472619 0.435339
163 1 1.00766 0.460877 0.279136
230 1 0.854886 0.284851 0.627214
293 2 0.85888 0.453492 0.516939
252 1 0.935992 0.416635 0.613341
138 1 0.993469 0.328848 0.505635
121 1 0.809425 0.412378 0.706108
164 1 0.901548 0.31297 0.89843
90 1 0.935777 0.47815 0.803468
176 1 0.993819 0.418683 0.951186
128 1 0.77095 0.384778 0.86197
183 1 0.948759 0.336436 0.749567
36 1 0.854014 0.697762 0.219649
348 2 0.963533 0.654358 0.150975
113 1 0.936432 0.569586 0.0256465
194 1 0.806799 0.679462 0.072686
241 1 0.891629 0.517725 0.170134
215 1 0.953143 0.727476 0.0464414
262 1 0.757934 0.540758 0.0927158
118 1 0.91547 0.695175 0.369158
284 1 0.855452 0.558852 0.305809
10 1 0.801008 0.528347 0.440324
137 1 0.808697 0.679512 0.501591
41 1 0.759633 0.675955 0.350134
285 1 0.956502 0.712751 0.54788
45 1 0.78164 0.545084 0.616516
76 1 0.937779 0.555513 0.569426
78 1 0.927543 0.633963 0.689722
324 2 0.889066 0.516757 0.685371
165 1 0.750488 0.711223 0.64049
340 2 0.789951 0.65142 0.872561
131 1 0.909891 0.61488 0.881726
129 1 0.792883 0.527449 0.937991
254 1 0.863251 0.73063 0.764109
260 1 0.833463 0.745995 0.936477
306 2 1.0073 0.54374 0.904677
249 1 0.756724 0.581342 0.766789
270 1 0.859172 0.836758 0.13028
339 2 0.759588 0.884899 0.205285
99 1 0.853993 0.985657 0.122457
338 2 0.924612 0.866265 0.227537
122 1 1.01066 0.89322 0.116876
33 1 0.784846 0.951364 0.436574
162 1 0.877031 0.824658 0.451174
104 1 0.82455 0.819273 0.295282
160 1 0.848561 0.965613 0.290188
299 2 0.915227 0.940105 0.395427
213 1 0.990977 0.857167 0.343233
70 1 0.856679 0.973247 0.716353
251 1 0.861992 0.828944 0.658593
298 2 0.962311 0.838244 0.560047
167 1 0.87904 0.966118 0.56314
258 1 0.750805 0.837634 0.549373
261 1 0.953765 0.958176 0.858456
49 1 0.825366 0.873654 0.852798
24 1 0.897131 0.871747 0.988268
91 1 0.963876 0.789133 0.866567
336 2 0.95217 0.864826 0.763799
ITEM: TIMESTEP
120000
ITEM: NUMBER OF ATOMS
360
ITEM: BOX BOUNDS pp pp pp
0.0000000000000000e+00 6.6943295008216896e+00
0.0000000000000000e+00 6.6943295008216896e+00
0.0000000000000000e+00 6.6943295008216896e+00
ITEM: ATOMS id type xs ys zs
171 1 0.216738 0.157018 0.154378
3 1 0.216245 0.00828191 0.145076
100 1 0.245297 0.119625 0.00165032
183 1 0.0986542 0.199192 0.0746872
20 1 0.100674 0.0401273 0.0328124
71 1 0.0905413 0.102213 0.225775
62 1 0.100283 0.167753 0.368687
225 1 0.15089 0.0579115 0.460358
353 2 0.22041 0.194005 0.287593
117 1 0.23841 0.0712392 0.282733
107 1 0.0138736 0.0299463 0.401703
61 1 0.172328 0.24149 0.490973
25 1 0.181416 0.129858 0.61413
326 2 0.0129144 0.195596 0.646871
212 1 0.0122008 0.061146 0.678828
50 1 0.0464731 0.129064 0.540281
316 2 0.236082 0.0454973 0.724632
297 2 0.221566 0.219983 0.707618
102 1 0.206286 0.0580177 0.848953
42 1 0.0121402 0.0513127 0.852131
157 1 0.120871 0.188547 0.911758
317 2 0.0791918 0.250054 0.772458
282 1 0.122932 0.13541 0.753197
124 1 0.171811 0.425943 0.0919644
116 1 0.213146 0.278945 0.00891207
345 2 0.164464 0.296801 0.127051
94 1 0.0305112 0.355406 0.127437
203 1 0.0149107 0.390377 0.272857
126 1 0.080421 0.330263 0.404025
130 1 0.192231 0.459061 0.406926
138 1 0.112097 0.259309 0.234464
40 1 0.026048 0.487047 0.404036
319 2 0.126218 0.496178 0.301117
64 1 0.189794 0.409345 0.233275
195 1 0.236995 0.303679 0.345776
322 2 0.233616 0.367072 0.48402
208 1 0.108183 0.420362 0.53131
127 1 0.177822 0.405744 0.687829
21 1 0.114944 0.259667 0.646099
214 1 0.031465 0.448829 0.699086
174 1 0.0152396 0.291041 0.546134
334 2 0.0945387 0.384278 0.787851
22 1 0.1689 0.470026 0.932101
224 1 0.163637 0.318773 0.858236
275 1 0.00546213 0.295805 0.864594
120 1 0.015984 0.447468 0.85305
303 2 0.238079 0.429686 0.832579
88 1 0.0827518 0.357967 0.989489
283 1 0.0881346 0.642367 0.064952
204 1 0.182881 0.660468 0.168999
150 1 0.010738 0.703096 0.224425
57 1 0.085842 0.538095 0.190916
241 1 0.032779 0.497778 0.0458098
298 2 0.00772878 0.612992 0.465737
70 1 0.0869558 0.621616 0.333122
141 1 0.0459154 0.743075 0.437142
321 2 0.206112 0.599192 0.381896
68 1 0.129493 0.586305 0.474079
279 1 0.160821 0.706421 0.587238
74 1 0.138853 0.550137 0.647471
76 1 -0.0110768 0.67994 0.593375
110 1 0.0503233 0.753325 0.712665
288 1 0.199209 0.669031 0.749301
56 1 0.0163973 0.603425 0.721162
251 1 0.22108 0.681966 0.916395
356 2 0.101262 0.676857 0.820305
90 1 0.0708261 0.586574 0.914901
276 1 0.140197 0.517748 0.794594
34 1 0.111124 0.872745 0.0607742
209 1 0.214456 0.846633 0.201559
122 1 0.0271981 0.861065 0.198328
299 2 0.0819628 0.961331 0.150726
338 2 0.0963826 0.76089 0.14102
318 2 0.207413 0.958716 0.0361224
228 1 0.217183 0.76171 0.060066
143 1 0.0963491 0.892241 0.433613
307 2 0.0367047 0.884204 0.323826
51 1 0.10764 0.781537 0.301475
37 1 0.137099 0.96097 0.282924
267 1 0.231102 0.851558 0.35023
15 1 0.203818 0.750493 0.451595
63 1 0.0408911 0.822181 0.577581
257 1 0.118929 0.982261 0.591663
246 1 0.173195 0.853431 0.661758
135 1 0.115222 0.963486 0.758863
198 1 0.231022 0.912588 0.507524
330 2 0.180857 0.829718 0.96337
69 1 0.00320048 0.846883 0.854392
216 1 0.135853 0.939856 0.91362
261 1 0.160552 0.802939 0.818938
352 2 0.0263726 0.894519 0.967425
244 1 0.0802987 0.758196 0.946273
164 1 0.352358 0.206021 0.104538
292 2 0.348046 0.104228 0.185519
311 2 0.449448 0.139793 0.0482942
239 1 0.474601 0.0867519 0.15478
16 1 0.347191 0.0264836 0.0941671
134 1 0.476299 0.00430091 0.00126807
86 1 0.390226 0.074267 0.288643
175 1 0.274706 0.153338 0.402838
263 1 0.451145 0.160151 0.387911
168 1 0.344059 0.212432 0.278709
347 2 0.488502 0.249844 0.478053
146 1 0.453422 -0.00359441 0.420042
172 1 0.482599 0.0990498 0.675718
341 2 0.278992 0.183755 0.525928
287 1 0.316674 0.152506 0.658829
237 1 0.288725 0.0475185 0.528949
357 2 0.41891 0.00988069 0.551953
2 1 0.420954 0.13648 0.534821
180 1 0.378961 0.0975721 0.928482
95 1 0.423095 0.202697 0.778779
219 1 0.27108 0.190803 0.849303
114 1 0.363678 0.044079 0.785488
302 2 0.335505 0.226653 0.963965
253 1 0.457399 0.241392 0.922811
32 1 0.439401 0.354733 0.196768
7 1 0.378542 0.355268 0.0419572
101 1 0.32618 0.476793 0.126911
140 1 0.283246 0.316022 0.162231
346 2 0.279985 0.456499 0.0135379
240 1 0.501265 0.4951 0.182447
272 1 0.34901 0.419751 0.440169
84 1 0.46119 0.325849 0.367126
132 1 0.327301 0.415146 0.294282
163 1 0.336636 0.281751 0.473049
73 1 0.470228 0.490267 0.338693
245 1 0.260841 0.295315 0.602396
236 1 0.370094 0.396111 0.623472
189 1 0.429056 0.256868 0.635054
1 1 0.263276 0.481385 0.55005
29 1 0.467519 0.37223 0.521319
190 1 0.485351 0.345799 0.750897
305 2 0.392562 0.31382 0.834715
181 1 0.299431 0.360302 0.919361
39 1 0.384924 0.44444 0.822407
210 1 0.513546 0.386202 0.917928
6 1 0.291913 0.327553 0.756881
103 1 0.417401 0.608866 0.0916453
4 1 0.404119 0.608576 0.248896
355 2 0.314189 0.644169 0.15104
31 1 0.259121 0.590002 0.0347683
333 2 0.405833 0.63807 0.496863
97 1 0.337999 0.56327 0.380773
156 1 0.411272 0.695864 0.376929
248 1 0.2722 0.704594 0.311493
81 1 0.248078 0.55487 0.25117
226 1 0.489917 0.754264 0.256316
151 1 0.422515 0.519121 0.538262
82 1 0.348239 0.632483 0.63791
77 1 0.452757 0.509185 0.693775
350 2 0.460165 0.675729 0.737567
96 1 0.298062 0.503323 0.713133
273 1 0.280072 0.624837 0.489907
218 1 0.368154 0.655657 0.949338
9 1 0.288451 0.540424 0.863987
12 1 0.349726 0.66863 0.786329
196 1 0.465111 0.74666 0.87335
46 1 0.471594 0.592255 0.833131
59 1 0.410031 0.513049 0.969434
91 1 0.313779 0.881944 0.0743747
206 1 0.451846 0.89394 0.132242
152 1 0.335486 0.942934 0.236597
72 1 0.348992 0.76973 0.181469
360 2 0.347365 0.770468 0.0162863
197 1 0.480209 0.759162 0.0836084
323 2 0.332312 0.788098 0.44818
222 1 0.387472 0.853014 0.344947
269 1 0.297998 0.979513 0.389517
256 1 0.283478 0.793736 0.727407
89 1 0.3752 0.895451 0.501623
187 1 0.293368 0.783024 0.574511
44 1 0.418241 0.795121 0.665029
232 1 0.305409 0.9611 0.652149
184 1 0.462263 0.944351 0.667986