ITEM: TIMESTEP
0
ITEM: NUMBER OF ATOMS
360
ITEM: BOX BOUNDS pp pp pp
0.0000000000000000e+00 6.6943295008216896e+00
0.0000000000000000e+00 6.6943295008216896e+00
0.0000000000000000e+00 6.6943295008216896e+00
ITEM: ATOMS id type xs ys zs
159 1 0.238609 0.0041411 0.156699
157 1 0.232052 0.104382 0.0235395
322 2 0.24865 0.15829 0.164927
28 1 0.0777185 0.0441195 0.184303
239 1 0.128127 0.18737 0.215848
16 1 0.0842904 0.160588 0.0816475
96 1 0.0689106 0.0654946 0.329875
132 1 0.190852 0.0610947 0.44206
325 2 0.092794 0.123289 0.474566
276 1 0.112477 0.192936 0.373317
50 1 0.229713 0.098388 0.295009
336 2 0.0238934 0.000154304 0.497693
175 1 0.0128728 0.189948 0.678009
4 1 0.0860364 0.0745962 0.588744
233 1 0.0230227 0.212676 0.535595
134 1 0.214268 0.150472 0.603676
63 1 0.127146 0.0756342 0.727687
105 1 0.00607271 0.205505 0.826971
242 1 0.120545 0.12735 0.920592
44 1 0.150849 0.214557 0.765164
18 1 0.173103 0.380526 0.202025
205 1 0.136123 0.436033 0.0315238
185 1 0.114638 0.293909 0.11212
199 1 0.0275046 0.363751 0.213289
316 2 0.0522202 0.495357 0.129562
211 1 0.24853 0.250544 0.0752659
52 1 0.0968587 0.447106 0.332127
73 1 0.234353 0.432379 0.377937
339 2 0.237212 0.491583 0.269798
61 1 0.227263 0.273545 0.31314
115 1 0.0277893 0.31903 0.391574
246 1 0.190326 0.272513 0.484318
264 1 0.130964 0.298408 0.627671
123 1 0.175124 0.475795 0.624081
138 1 0.0252931 0.323709 0.746375
190 1 0.00415683 0.45273 0.609402
161 1 0.120383 0.389051 0.509397
21 1 0.115572 0.476945 0.89646
310 2 0.0812806 0.356082 0.862839
102 1 0.152759 0.278131 0.920567
334 2 0.198153 0.396381 0.938082
38 1 0.0294034 0.311629 0.993637
166 1 0.17377 0.367938 0.767864
26 1 0.00741324 0.4795 0.767129
80 1 0.0333527 0.699347 0.148434
47 1 0.11838 0.541057 0.213908
92 1 0.240787 0.634715 0.152622
64 1 0.229147 0.558411 0.0213154
41 1 0.0748952 0.597556 0.00298436
137 1 0.0296752 0.594599 0.363041
313 2 0.156371 0.532473 0.39302
153 1 0.142825 0.681674 0.409575
58 1 0.237219 0.561084 0.472673
287 1 0.231701 0.613358 0.328751
23 1 0.113227 0.680681 0.257617
49 1 0.16918 0.659776 0.579363
183 1 0.248507 0.593449 0.704011
19 1 0.0819735 0.607776 0.679385
290 2 0.058885 0.729186 0.635554
249 1 0.111073 0.743977 0.742476
231 1 0.0875768 0.538688 0.51008
202 1 0.231403 0.640277 0.908372
106 1 0.00643055 0.720529 0.882636
248 1 0.1021 0.610539 0.850245
62 1 0.143436 0.747252 0.931825
360 2 0.136157 0.519338 0.760806
309 2 0.164328 0.885324 0.00261204
25 1 0.0461978 0.828046 0.040675
2 1 0.120698 0.914771 0.146906
253 1 0.0789293 0.975167 0.0273619
125 1 0.172844 0.763948 0.132988
176 1 0.103752 0.93816 0.421024
165 1 0.172413 0.940079 0.284083
74 1 0.210189 0.817889 0.372282
326 2 0.231813 0.943423 0.387366
85 1 0.0287436 0.922908 0.290239
347 2 0.101957 0.82315 0.297539
181 1 0.0711097 0.806861 0.494635
312 2 0.23978 0.888138 0.720176
35 1 0.117116 0.919951 0.742704
203 1 0.205867 0.968523 0.562111
297 2 0.0481131 0.840011 0.677861
42 1 0.0515813 0.925375 0.583165
148 1 0.17693 0.83876 0.609902
201 1 0.0552334 0.954848 0.878345
275 1 0.208622 0.987947 0.906249
280 1 0.202351 0.856431 0.85061
350 2 0.081623 0.831524 0.84621
291 2 0.212363 0.999876 0.773865
282 1 0.370016 0.10424 0.0691823
36 1 0.482691 0.225545 0.185557
263 1 0.380805 0.112509 0.212167
147 1 0.325522 0.247512 0.203262
140 1 0.423018 0.244749 0.0168139
358 2 0.253702 0.173019 0.395099
197 1 0.391556 0.18698 0.344898
170 1 0.326171 0.0298582 0.389364
250 1 0.447897 0.0298324 0.309871
177 1 0.449905 0.173302 0.487439
221 1 0.346278 0.0522078 0.53302
27 1 0.290908 0.00633318 0.671879
167 1 0.370551 0.132801 0.661602
305 2 0.457711 0.206395 0.723387
243 1 0.495915 0.0701321 0.598096
143 1 0.254159 0.115209 0.797246
223 1 0.413572 0.154184 0.87012
217 1 0.454258 0.00380232 0.898761
357 2 0.399405 0.0850618 0.769364
37 1 0.296983 0.219929 0.921365
293 2 0.312094 0.0416689 0.95662
208 1 0.32158 0.242192 0.753876
273 1 0.298515 0.405271 0.0124067
114 1 0.256908 0.493027 0.147671
238 1 0.394763 0.384233 0.122203
207 1 0.43037 0.493147 0.232979
200 1 0.321778 0.401005 0.262818
65 1 0.340265 0.332358 0.391353
59 1 0.478845 0.44251 0.381578
324 2 0.401459 0.289702 0.281996
278 1 0.499077 0.279044 0.390937
349 2 0.432336 0.488774 0.476839
229 1 0.498909 0.364852 0.25027
186 1 0.434376 0.279433 0.631809
232 1 0.449741 0.361672 0.508801
342 2 0.375515 0.411492 0.616383
267 1 0.283319 0.410742 0.531582
195 1 0.289559 0.283812 0.614642
135 1 0.344584 0.387075 0.729692
139 1 0.499167 0.411675 0.646649
335 2 0.327394 0.252642 0.503492
128 1 0.483149 0.337449 0.78715
224 1 0.405858 0.492682 0.841315
87 1 0.303103 0.348195 0.870867
294 2 0.296061 0.497871 0.923685
10 1 0.448979 0.396171 0.93283
48 1 0.258688 0.495071 0.808368
346 2 0.320301 0.673138 0.0272034
314 2 0.368798 0.581329 0.169384
277 1 0.463089 0.636801 0.0382957
240 1 0.365568 0.71795 0.147144
184 1 0.375143 0.518575 0.063337
337 2 0.30391 0.684157 0.392972
213 1 0.360604 0.528146 0.370138
194 1 0.380433 0.635692 0.28457
145 1 0.269423 0.740546 0.271866
286 1 0.398125 0.658108 0.457374
299 2 0.485407 0.737675 0.258368
261 1 0.272386 0.745444 0.495791
40 1 0.424131 0.669063 0.638572
252 1 0.406644 0.514191 0.70199
152 1 0.331172 0.537912 0.575351
348 2 0.317483 0.661286 0.605947
353 2 0.498693 0.586853 0.719131
259 1 0.478961 0.561576 0.566312
70 1 0.374659 0.593239 0.933082
311 2 0.30912 0.623353 0.81185
9 1 0.461726 0.655123 0.808357
34 1 0.35319 0.735336 0.882469
265 1 0.286023 0.944483 0.0377025
230 1 0.469538 0.83978 0.153721
228 1 0.388786 0.97492 0.162062
330 2 0.377161 0.86091 0.0861927
301 2 0.375609 0.801386 0.243403
216 1 0.289622 0.857382 0.170191
150 1 0.469758 0.933264 0.0237397
191 1 0.277971 0.795108 0.0364474
271 1 0.439185 0.792181 0.00118591
258 1 0.487029 0.878532 0.304142
220 1 0.325282 0.900428 0.316107
269 1 0.395196 0.774509 0.356857
117 1 0.306367 0.888402 0.475504
99 1 0.445051 0.948385 0.448203
53 1 0.44383 0.786082 0.721174
323 2 0.400457 0.931957 0.58105
188 1 0.311175 0.828139 0.624849
122 1 0.435962 0.821098 0.52568
163 1 0.445528 0.954987 0.70765
196 1 0.278755 0.757264 0.745243
283 1 0.338338 0.873491 0.914907
351 2 0.3567 0.85313 0.783777
318 2 0.47912 0.783205 0.863279
260 1 0.336306 0.979223 0.818582
284 1 0.61642 0.16485 0.180779
343 2 0.553231 0.200884 0.0726164
86 1 0.654441 0.104426 0.0421379
172 1 0.725295 0.0299255 0.156986
164 1 0.50136 0.0799446 0.120226
219 1 0.577493 0.010064 0.224477
270 1 0.690465 0.228603 0.410762
198 1 0.567717 0.143957 0.388027
81 1 0.674061 0.0679065 0.329122
7 1 0.745436 0.192441 0.265834
308 2 0.721719 0.0655011 0.472119
15 1 0.568328 0.0296012 0.473827
333 2 0.530586 0.148883 0.271033
328 2 0.714901 0.0731341 0.730786
71 1 0.65947 0.132499 0.552455
262 1 0.61733 0.0212076 0.66256
101 1 0.591245 0.202372 0.688671
142 1 0.726066 0.178508 0.69218
288 1 0.528269 0.150847 0.966515
214 1 0.565692 0.220092 0.828399
6 1 0.519236 0.0702873 0.785323
247 1 0.671364 0.0907337 0.846422
22 1 0.715381 0.40453 0.0115624
119 1 0.686418 0.284526 0.138322
69 1 0.628109 0.423472 0.200057
32 1 0.546889 0.322148 0.0819206
302 2 0.574546 0.423285 0.0118913
54 1 0.62571 0.407175 0.354178
146 1 0.734344 0.342413 0.281127
272 1 0.612808 0.264735 0.297969
45 1 0.711972 0.407777 0.475379
160 1 0.576429 0.488298 0.507295
24 1 0.631601 0.365841 0.61974
332 2 0.717228 0.45322 0.719263
91 1 0.579528 0.274513 0.510518
39 1 0.599408 0.384773 0.893155
72 1 0.721402 0.476514 0.844316
274 1 0.634336 0.354627 0.755699
215 1 0.547699 0.48664 0.776725
89 1 0.64033 0.2673 0.97205
327 2 0.509008 0.285729 0.917123
8 1 0.733691 0.327785 0.871566
111 1 0.660071 0.571793 0.14858
329 2 0.590466 0.640868 0.0457045
126 1 0.718036 0.726157 0.13237
118 1 0.509924 0.637623 0.173987
107 1 0.520823 0.505679 0.102818
315 2 0.64929 0.689491 0.400174
144 1 0.615209 0.69084 0.260296
319 2 0.649618 0.52352 0.404653
168 1 0.522968 0.608402 0.39888
11 1 0.737433 0.606938 0.375917
51 1 0.578465 0.547305 0.268828
75 1 0.612254 0.513295 0.651987
204 1 0.574205 0.672799 0.682426
155 1 0.542637 0.690258 0.513487
90 1 0.672882 0.596661 0.519103
344 2 0.745333 0.614592 0.65123
298 2 0.649934 0.696468 0.596345
279 1 0.66819 0.598788 0.801372
94 1 0.563457 0.687924 0.941445
30 1 0.507313 0.524376 0.953547
210 1 0.656669 0.536231 0.998073
359 2 0.697877 0.948002 0.0408011
178 1 0.57678 0.750542 0.0914511
306 2 0.687003 0.829294 0.0374322
266 1 0.603032 0.916971 0.102854
268 1 0.630671 0.831572 0.224648
218 1 0.627819 0.919976 0.39012
179 1 0.572361 0.78202 0.380412
66 1 0.733343 0.773701 0.361143
141 1 0.726969 0.935895 0.280431
338 2 0.58715 0.837366 0.489403
56 1 0.5947 0.803268 0.619539
285 1 0.728063 0.803219 0.515676
131 1 0.728824 0.909354 0.683099
341 2 0.61799 0.89212 0.706021
110 1 0.671765 0.948559 0.546142
235 1 0.528418 0.93626 0.579754
149 1 0.748977 0.765464 0.718722
156 1 0.664477 0.895157 0.825221
120 1 0.522747 0.903023 0.804786
33 1 0.606286 0.976651 0.951912
209 1 0.582542 0.834829 0.96575
255 1 0.588966 0.762458 0.797767
79 1 0.707109 0.756858 0.883763
180 1 0.802149 0.140873 0.11408
295 2 0.867972 0.0337606 0.137584
206 1 0.962306 0.225234 0.139225
108 1 0.965046 0.0666205 0.0765117
13 1 0.905443 0.196944 0.00437457
300 2 0.818084 0.1018 0.24599
133 1 0.956135 0.120776 0.249319
317 2 0.859569 0.0928118 0.00415145
320 2 0.814501 0.200425 0.41519
192 1 0.9697 0.16675 0.401045
57 1 0.828112 0.0796883 0.364758
169 1 0.818713 0.145984 0.536413
1 1 0.795998 0.0334939 0.623391
76 1 0.881009 0.140451 0.717878
104 1 0.927982 0.0752565 0.579855
68 1 0.845015 0.177658 0.854115
130 1 0.984909 0.0496145 0.780301
129 1 0.769505 0.0373376 0.93026
98 1 0.979351 0.0907308 0.927014
136 1 0.815243 0.027102 0.775847
222 1 0.757031 0.184547 0.972423
5 1 0.759968 0.442223 0.149213
151 1 0.967239 0.406707 0.0918487
187 1 0.830863 0.30216 0.142532
97 1 0.887616 0.391933 0.24416
244 1 0.848694 0.343353 0.00767812
20 1 0.822005 0.378138 0.400708
31 1 0.908039 0.285313 0.471302
116 1 0.989016 0.437576 0.463729
100 1 0.912326 0.497302 0.363689
236 1 0.766305 0.483757 0.303132
113 1 0.889423 0.254376 0.293694
354 2 0.79379 0.488808 0.431023
121 1 0.784106 0.343029 0.686626
78 1 0.860576 0.395163 0.54451
55 1 0.877961 0.264099 0.615467
307 2 0.90697 0.384083 0.675575
193 1 0.766211 0.492106 0.61341
355 2 0.999774 0.343599 0.571742
127 1 0.751105 0.279847 0.544126
12 1 0.854418 0.47752 0.985004
227 1 0.862365 0.463574 0.756906
158 1 0.957865 0.411268 0.890781
67 1 0.883546 0.31655 0.806834
292 2 0.925637 0.281443 0.916813
352 2 0.82469 0.414795 0.876292
340 2 0.86937 0.690961 0.138236
256 1 0.956884 0.693822 0.0263083
77 1 0.800387 0.596782 0.0945529
17 1 0.953801 0.570116 0.114276
109 1 0.783627 0.628957 0.235121
304 2 0.874693 0.514283 0.193384
257 1 0.788536 0.741652 0.0170512
162 1 0.985314 0.501223 0.23905
14 1 0.928439 0.644091 0.242659
296 2 0.971092 0.566557 0.468163
331 2 0.857596 0.737116 0.367465
103 1 0.894381 0.632694 0.404869
356 2 0.766102 0.678433 0.475266
3 1 0.999131 0.746116 0.361479
345 2 0.858654 0.724391 0.737844
60 1 0.91504 0.577077 0.648749
88 1 0.834345 0.573332 0.522972
212 1 0.832113 0.69986 0.622823
154 1 0.98594 0.684062 0.520776
112 1 0.767267 0.616693 0.928381
225 1 0.853502 0.735642 0.870546
83 1 0.927877 0.562806 0.860017
171 1 0.970246 0.669181 0.753234
189 1 0.808472 0.60143 0.776027
43 1 0.894853 0.822514 0.0902257
182 1 0.951985 0.797483 0.220587
289 2 0.957614 0.929823 0.0206778
124 1 0.827791 0.964967 0.0392078
95 1 0.802638 0.777379 0.24342
226 1 0.973122 0.932912 0.153779
173 1 0.765148 0.8814 0.148715
234 1 0.882521 0.972828 0.257613
237 1 0.781081 0.945089 0.43157
174 1 0.89576 0.861533 0.359893
303 2 0.986307 0.868595 0.436692
241 1 0.883799 0.761069 0.48446
93 1 0.94191 0.996974 0.403457
251 1 0.882107 0.909848 0.53664
82 1 0.933502 0.94749 0.676606
321 2 0.844588 0.852197 0.639004
281 1 0.950863 0.786918 0.613674
29 1 0.897017 0.981021 0.88561
245 1 0.827072 0.876049 0.799452
254 1 0.935017 0.841276 0.918187
46 1 0.974948 0.832801 0.775693
84 1 0.771779 0.875528 0.940465
ITEM: TIMESTEP
10000
ITEM: NUMBER OF ATOMS
360
ITEM: BOX BOUNDS pp pp pp
0.0000000000000000e+00 6.6943295008216896e+00
0.0000000000000000e+00 6.6943295008216896e+00
0.0000000000000000e+00 6.6943295008216896e+00
ITEM: ATOMS id type xs ys zs
239 1 0.174138 0.205949 0.178388
275 1 0.195073 0.040599 0.0830116
309 2 0.0663293 0.0250421 -0.00120132
2 1 0.068431 0.137252 0.0879762
170 1 0.173391 0.14921 0.340265
132 1 0.0435874 0.243706 0.413194
358 2 0.0474833 0.22997 0.278877
96 1 0.056116 0.057803 0.428271
326 2 0.153094 0.0275685 0.351391
50 1 0.15897 0.134051 0.494531
157 1 0.0747721 0.0633199 0.253311
232 1 0.239676 0.24764 0.581493
143 1 0.184436 0.069764 0.622855
195 1 0.103417 0.197753 0.661171
291 2 0.0545671 0.0314671 0.706781
44 1 0.0162597 0.0818606 0.587027
242 1 0.168515 0.101514 0.767696
105 1 0.0687113 0.22819 0.870224
253 1 0.151329 0.105672 0.916292
293 2 0.246166 0.0504396 0.964306
334 2 0.138159 0.2471 0.773316
16 1 0.146191 0.228911 0.993855
18 1 0.19802 0.327098 0.0939389
38 1 0.0473709 0.294975 0.177101
162 1 0.161445 0.439664 0.201983
151 1 0.0588181 0.415108 0.083509
244 1 0.00232113 0.292515 0.0315557
73 1 0.223533 0.285186 0.423501
339 2 0.108737 0.358392 0.426536
276 1 0.146375 0.308066 0.283441
52 1 0.185555 0.439979 0.3524
116 1 0.0800684 0.489366 0.46375
31 1 0.0304427 0.422568 0.330211
246 1 0.0952362 0.292703 0.540032
267 1 0.162259 0.353073 0.662631
310 2 0.0397823 0.319336 0.675488
360 2 0.0757533 0.447324 0.669043
161 1 0.192132 0.401066 0.51416
123 1 0.181793 0.496981 0.643228
21 1 0.210077 0.324994 0.835911
166 1 0.0768957 0.37716 0.785307
48 1 0.235497 0.472333 0.786503
185 1 0.125008 0.378617 0.952968
292 2 0.0204568 0.461394 0.864534
106 1 0.0919323 0.723161 0.0457275
205 1 0.169494 0.508447 0.0439338
14 1 0.200479 0.639981 0.123774
43 1 0.0784324 0.687923 0.219811
17 1 0.039747 0.545093 0.149579
153 1 0.0980023 0.565463 0.329664
347 2 0.165053 0.695291 0.344013
231 1 0.124271 0.658554 0.466792
47 1 0.242364 0.556385 0.269163
145 1 0.247503 0.718412 0.252205
290 2 0.167794 0.658547 0.600291
19 1 0.136543 0.603776 0.741313
261 1 0.0555755 0.713354 0.619428
190 1 0.069624 0.56409 0.601335
331 2 0.0135338 0.713399 0.499558
41 1 0.144318 0.677675 0.900197
346 2 0.109737 0.606004 0.996841
248 1 0.134548 0.515458 0.879395
171 1 0.0334796 0.717836 0.781956
158 1 0.012939 0.513715 0.983376
283 1 0.16902 0.950687 0.217436
350 2 0.0354495 0.835146 0.0556741
80 1 0.0273541 0.954345 0.117376
191 1 0.16758 0.800078 0.150605
280 1 0.158835 0.903377 0.0197272
74 1 0.23695 0.792617 0.380151
85 1 0.13121 0.891583 0.349342
117 1 0.201564 0.979902 0.479543
3 1 0.0585342 0.76226 0.366722
251 1 0.0186424 0.911269 0.458427
303 2 0.0212893 0.980242 0.323395
176 1 0.118909 0.813777 0.499724
125 1 0.0292805 0.857842 0.249519
35 1 0.160686 0.95968 0.71742
297 2 0.0901687 0.84277 0.616725
134 1 0.0886457 0.96109 0.584893
201 1 0.0482518 0.878011 0.720358
203 1 0.227253 0.885357 0.597397
148 1 0.171887 0.763883 0.688666
25 1 0.0652024 0.835557 0.929526
312 2 0.132641 0.927645 0.907072
249 1 0.199432 0.830531 0.828936
260 1 0.239123 0.980351 0.842251
98 1 0.0356175 0.994507 0.838271
238 1 0.373163 0.226759 0.136061
211 1 0.277866 0.161663 0.0427937
250 1 0.400767 0.0904647 0.208994
150 1 0.464947 0.125624 0.0785327
165 1 0.255183 0.0751584 0.21291
177 1 0.436307 0.164654 0.327069
61 1 0.301891 0.215385 0.264408
338 2 0.3166 0.0894965 0.339388
221 1 0.311322 0.155777 0.438151
27 1 0.349129 0.022354 0.472294
335 2 0.443051 0.0989875 0.452984
99 1 0.421442 0.0120914 0.337761
342 2 0.297124 0.0933623 0.556543
186 1 0.404116 0.170556 0.554944
167 1 0.453993 0.0911794 0.688236
208 1 0.298379 0.153625 0.692016
87 1 0.431545 0.241957 0.682956
163 1 0.335334 0.000302931 0.728538
37 1 0.35822 0.0423757 0.902656
223 1 0.460111 0.177636 0.808955
282 1 0.411401 0.210025 0.970853
357 2 0.365179 0.0981692 0.790446
102 1 0.285568 0.20053 0.864119
107 1 0.481516 0.335494 0.155396
314 2 0.349432 0.345014 0.118436
114 1 0.321228 0.469933 0.125294
118 1 0.41584 0.479817 0.231857
115 1 0.294949 0.373827 0.246432
39 1 0.507435 0.46705 0.105035
324 2 0.415713 0.27953 0.249089
140 1 0.415367 0.394532 0.00775717
200 1 0.367923 0.307035 0.379299
287 1 0.348143 0.462963 0.390348
278 1 0.487608 0.340334 0.480879
139 1 0.346857 0.48307 0.660663
24 1 0.478595 0.380152 0.634818
135 1 0.306236 0.332641 0.712493
65 1 0.328428 0.355401 0.534618
122 1 0.427363 0.478783 0.51986
273 1 0.363755 0.343307 0.865192
10 1 0.380849 0.496454 0.810551
64 1 0.283448 0.460989 0.932195
215 1 0.490933 0.426274 0.892963
147 1 0.29326 0.309271 0.984418
294 2 0.415812 0.38148 0.757303
240 1 0.379029 0.710227 0.0474001
337 2 0.309561 0.733899 0.148034
92 1 0.357533 0.608546 0.16701
178 1 0.49503 0.674855 0.158667
349 2 0.472136 0.697335 0.492273
49 1 0.366507 0.723231 0.409947
286 1 0.398944 0.604813 0.323211
301 2 0.383685 0.711039 0.261305
23 1 0.26754 0.619397 0.411401
75 1 0.380652 0.617368 0.542496
152 1 0.273723 0.624327 0.672763
154 1 0.260424 0.717979 0.533007
252 1 0.416379 0.666893 0.700343
58 1 0.26309 0.532312 0.522543
70 1 0.415903 0.632636 0.845081
34 1 0.299097 0.737196 0.87755
351 2 0.266252 0.716953 0.764969
183 1 0.267391 0.602084 0.834725
184 1 0.400492 0.556704 0.994402
62 1 0.259572 0.629776 0.977105
313 2 0.253327 0.749539 0.994143
265 1 0.291444 0.845324 0.0811862
318 2 0.402356 0.839653 0.0218956
194 1 0.418987 0.812358 0.175796
258 1 0.341334 0.938046 0.214226
159 1 0.341732 0.98849 0.0842927
164 1 0.492404 0.96639 0.160303
330 2 0.256295 0.850224 0.239232
220 1 0.271831 0.979274 0.350149
216 1 0.384411 0.851061 0.319523
188 1 0.322392 0.885272 0.466245
155 1 0.481383 0.895999 0.439548
311 2 0.475448 0.759814 0.658512
235 1 0.422132 0.806072 0.54928
348 2 0.267885 0.878782 0.730028
53 1 0.437948 0.89584 0.675729
323 2 0.312712 0.974333 0.581302
40 1 0.319431 0.785185 0.668158
243 1 0.47615 0.993211 0.554355
271 1 0.452087 0.965931 1.0003
202 1 0.459394 0.757486 0.916907
196 1 0.357909 0.872532 0.806463
120 1 0.311743 0.885048 0.947038
33 1 0.471479 0.991224 0.795884
353 2 0.388598 0.757959 0.785811
219 1 0.67811 0.108948 0.189633
197 1 0.525907 0.190881 0.201242
36 1 0.612129 0.156221 0.0384784
322 2 0.591216 0.0360307 0.122396
327 2 0.535056 0.245849 0.0719443
209 1 0.607903 0.00462255 0.0085125
270 1 0.624556 0.164271 0.348839
300 2 0.661952 0.124038 0.466226
91 1 0.521845 0.196814 0.464984
71 1 0.55415 0.0328677 0.424896
15 1 0.562257 0.0455079 0.280385
228 1 0.695094 0.0254289 0.329268
81 1 0.722511 0.0164027 0.485833
101 1 0.573828 0.107585 0.568108
247 1 0.598067 0.187938 0.708667
328 2 0.705587 0.0412419 0.607343
127 1 0.717605 0.164908 0.580073
136 1 0.713906 0.0679865 0.740387
142 1 0.744197 0.219161 0.715847
180 1 0.72151 0.0917393 0.968452
86 1 0.650909 0.157365 0.842324
217 1 0.525552 0.103709 0.927665
305 2 0.546263 0.0924163 0.773135
198 1 0.655278 0.264461 0.142795
329 2 0.527714 0.412638 0.240132
229 1 0.645506 0.4091 0.177062
343 2 0.701189 0.351992 0.0462849
22 1 0.652942 0.484065 0.0386419
354 2 0.595227 0.31171 0.42097
320 2 0.715025 0.374842 0.420941
236 1 0.678387 0.29861 0.2905
146 1 0.689555 0.252595 0.446972
54 1 0.520165 0.295616 0.325759
59 1 0.649737 0.473351 0.324478
20 1 0.60158 0.450936 0.480914
207 1 0.50224 0.457163 0.349929
274 1 0.599929 0.263286 0.575683
332 2 0.601789 0.443121 0.633897
45 1 0.677189 0.350119 0.700715
67 1 0.716107 0.365123 0.555875
128 1 0.53752 0.326646 0.766548
32 1 0.665424 0.321984 0.845397
121 1 0.654423 0.480752 0.888896
214 1 0.541811 0.251149 0.905405
288 1 0.581562 0.35574 0.9935
89 1 0.699786 0.247883 0.962403
224 1 0.520409 0.496164 0.760813
306 2 0.609931 0.571833 0.12373
173 1 0.680238 0.682149 0.119745
299 2 0.641659 0.686718 0.249125
69 1 0.698255 0.556787 0.210793
277 1 0.524318 0.62765 0.0234145
213 1 0.516705 0.594932 0.419189
126 1 0.650507 0.643708 0.357417
168 1 0.741455 0.505543 0.44202
179 1 0.506012 0.729796 0.301613
51 1 0.556955 0.577099 0.261689
279 1 0.668604 0.516523 0.738586
90 1 0.543374 0.681062 0.590308
285 1 0.741215 0.726098 0.620038
315 2 0.648837 0.595903 0.650041
204 1 0.564347 0.659542 0.734136
160 1 0.729812 0.50837 0.592073
319 2 0.58259 0.56401 0.543613
268 1 0.669639 0.630995 0.507997
259 1 0.503325 0.541408 0.633589
9 1 0.602069 0.734544 0.908435
352 2 0.66315 0.612443 0.814445
149 1 0.71 0.718051 0.770756
210 1 0.662028 0.619694 0.979574
30 1 0.546004 0.593845 0.874462
302 2 0.526739 0.511933 0.973704
266 1 0.537592 0.798687 0.0413508
263 1 0.649007 0.936438 0.160794
94 1 0.696154 0.790007 0.0140286
230 1 0.594803 0.794757 0.185116
237 1 0.684311 0.797184 0.296822
141 1 0.561255 0.760109 0.447302
218 1 0.638056 0.882495 0.422523
269 1 0.567356 0.88478 0.294681
66 1 0.729339 0.763268 0.456124
308 2 0.640031 0.767088 0.540718
110 1 0.567099 0.865246 0.6
262 1 0.705045 0.875878 0.556909
131 1 0.691799 0.863579 0.707867
341 2 0.595698 0.979799 0.531733
6 1 0.592876 0.99552 0.676577
321 2 0.619246 0.761003 0.667095
56 1 0.551994 0.81591 0.741189
79 1 0.708109 0.850491 0.880557
255 1 0.537648 0.887745 0.884933
359 2 0.632611 0.885758 0.968175
156 1 0.625679 0.999033 0.855206
108 1 0.924091 0.068578 0.0756123
206 1 0.922882 0.212026 0.150749
284 1 0.804021 0.0212666 0.173941
7 1 0.789115 0.164973 0.0927326
4 1 0.853254 0.0125558 0.366262
233 1 0.925858 0.154742 0.440444
57 1 0.774882 0.15174 0.407042
93 1 0.949364 0.137605 0.288351
325 2 0.935506 0.0196786 0.465085
133 1 0.795314 0.169752 0.260558
55 1 0.974663 0.230153 0.586891
175 1 0.835202 0.080339 0.538857
76 1 0.870014 0.111462 0.694785
129 1 0.804231 0.134562 0.83425
317 2 0.940175 0.218685 0.864442
29 1 0.986093 0.110436 0.942765
13 1 0.85525 0.175871 0.962367
289 2 0.903268 0.0582011 0.827123
245 1 0.846821 0.0173811 0.94096
138 1 0.999675 0.129061 0.77555
5 1 0.949782 0.416456 0.187658
256 1 0.915908 0.41488 0.031814
187 1 0.83614 0.299789 0.0396635
272 1 0.784112 0.439475 0.112973
113 1 0.800197 0.327617 0.202326
97 1 0.805326 0.455589 0.326821
104 1 0.933927 0.340389 0.447663
199 1 0.926021 0.303763 0.292138
192 1 0.806125 0.298137 0.369389
100 1 0.903657 0.492657 0.447283
26 1 0.941073 0.451497 0.733851
193 1 0.850623 0.355578 0.647972
68 1 0.926073 0.254301 0.739565
355 2 0.836405 0.396957 0.519401
264 1 0.997046 0.400164 0.583662
169 1 0.834372 0.255078 0.542703
227 1 0.89245 0.485698 0.884527
12 1 0.958391 0.343809 0.886872
8 1 0.79077 0.419599 0.774802
222 1 0.83182 0.28368 0.85267
119 1 0.764205 0.395427 0.944384
316 2 0.956688 0.641955 0.190299
111 1 0.877971 0.551435 0.135533
112 1 0.836983 0.698721 0.0648528
83 1 0.970435 0.639935 0.0390933
95 1 0.805081 0.697598 0.21376
304 2 0.758114 0.572522 0.100793
103 1 0.973798 0.627436 0.41546
144 1 0.792875 0.603632 0.336259
137 1 0.931188 0.558555 0.271924
109 1 0.931103 0.717879 0.294095
295 2 0.79374 0.745859 0.339191
241 1 0.801377 0.592327 0.692974
60 1 0.972398 0.596782 0.713727
296 2 0.969095 0.592369 0.533839
181 1 0.901132 0.70155 0.612438
78 1 0.893017 0.505738 0.599259
11 1 0.827915 0.619809 0.505269
88 1 0.773615 0.574162 0.846233
344 2 0.871769 0.643791 0.899003
212 1 0.884598 0.704885 0.784974
307 2 0.875319 0.568127 0.788848
46 1 0.958614 0.737748 0.921966
225 1 0.769672 0.703154 0.920644
72 1 0.81156 0.550714 0.983933
189 1 0.975159 0.599288 0.861651
124 1 0.880872 0.892942 0.103276
340 2 0.86631 0.810251 0.22337
77 1 0.955568 0.759814 0.141684
172 1 0.762382 0.823173 0.153904
28 1 0.926127 0.981541 0.23986
84 1 0.752686 0.951648 0.0427517
182 1 0.910528 0.851703 0.349534
174 1 0.876948 0.762411 0.463906
333 2 0.754563 0.925561 0.403671
234 1 0.793244 0.905424 0.287356
42 1 0.965913 0.84407 0.580602
336 2 0.953842 0.977667 0.584346
298 2 0.813783 0.821479 0.578892
281 1 0.842282 0.829768 0.708363
356 2 0.961679 0.780912 0.701066
82 1 0.802252 0.974628 0.640257
63 1 0.942765 0.978755 0.719926
1 1 0.845549 0.914961 0.496327
345 2 0.819784 0.798161 0.835092
254 1 0.929643 0.871128 0.832207
257 1 0.84261 0.84201 0.962015
130 1 0.793157 0.95451 0.821746
226 1 0.96936 0.939265 0.97103
ITEM: TIMESTEP
20000
ITEM: NUMBER OF ATOMS
360
ITEM: BOX BOUNDS pp pp pp
0.0000000000000000e+00 6.6943295008216896e+00
0.0000000000000000e+00 6.6943295008216896e+00
0.0000000000000000e+00 6.6943295008216896e+00
ITEM: ATOMS id type xs ys zs
120 1 0.23158 0.111341 0.0189254
2 1 0.0590079 0.0216013 0.200568
38 1 0.144851 0.165639 0.171203
239 1 0.225855 0.0382234 0.178829
326 2 0.236829 0.191938 0.247022
96 1 0.164541 0.100638 0.307762
199 1 0.0307206 0.172607 0.283473
3 1 0.005661 0.0556458 0.390082
339 2 0.0968494 0.14776 0.400303
50 1 0.192036 0.131352 0.481353
117 1 0.167977 0.0425333 0.609847
195 1 0.0487579 0.129273 0.546012
35 1 0.0534872 0.0989233 0.710633
163 1 0.219068 0.199158 0.618074
280 1 0.111898 0.00709835 0.899933
348 2 0.173335 0.0614192 0.782507
260 1 0.219853 0.151722 0.859456
312 2 0.232791 0.0187402 0.92925
138 1 0.00726788 0.122256 0.846258
275 1 0.0806429 0.143374 0.989217
98 1 0.145299 0.229482 0.755204
104 1 0.0825255 0.316639 0.217925
52 1 0.163537 0.419127 0.136933
132 1 0.0531142 0.281742 0.0814988
316 2 0.061023 0.498407 0.170961
310 2 0.217865 0.259071 0.090591
232 1 0.226062 0.291376 0.490198
355 2 0.021692 0.450542 0.377102
161 1 0.134977 0.40742 0.486568
47 1 0.240145 0.383966 0.36465
246 1 0.0657216 0.273591 0.469959
103 1 0.121198 0.469308 0.283659
73 1 0.154701 0.252234 0.34632
26 1 0.0730498 0.448768 0.657286
267 1 0.163037 0.341596 0.625671
342 2 0.0394796 0.350564 0.747458
307 2 0.0255904 0.354576 0.556382
143 1 0.0499099 0.255359 0.631243
189 1 0.0475749 0.447088 0.84054
166 1 0.175591 0.368491 0.783101
48 1 0.187511 0.471767 0.898964
242 1 0.0541338 0.277243 0.857313
105 1 0.160551 0.279572 0.963208
151 1 0.0510321 0.400255 0.99406
357 2 0.230242 0.28016 0.85525
317 2 0.173987 0.407091 0.999093
185 1 0.108478 0.524377 0.0413452
162 1 0.150312 0.586744 0.196221
158 1 0.128346 0.671334 0.0111087
346 2 0.180942 0.695446 0.122969
256 1 0.0296303 0.644816 0.117086
14 1 0.0910455 0.748572 0.204848
116 1 0.0604134 0.586833 0.404626
231 1 0.0195036 0.627094 0.268683
23 1 0.179949 0.668521 0.486314
347 2 0.131841 0.723392 0.37723
153 1 0.200232 0.634236 0.328029
122 1 0.216558 0.516039 0.430587
174 1 0.0293747 0.709555 0.454554
183 1 0.0792188 0.60911 0.707245
287 1 0.131629 0.552049 0.563896
58 1 0.0688349 0.720129 0.595485
75 1 0.224904 0.647087 0.701266
135 1 0.213857 0.500713 0.684276
41 1 0.0849774 0.61597 0.870668
201 1 0.127356 0.735495 0.780707
292 2 0.147275 0.517257 0.797826
290 2 0.207918 0.624504 0.828005
62 1 0.206343 0.739403 0.908736
125 1 0.247322 0.773786 0.235918
216 1 0.147566 0.887206 0.187785
106 1 0.0597504 0.80597 0.0541274
92 1 0.212066 0.804683 0.0786369
283 1 0.1245 0.993798 0.0592987
330 2 0.23112 0.896005 0.414131
85 1 0.155321 0.99344 0.427372
157 1 0.118636 0.835111 0.321875
154 1 0.134988 0.81678 0.47474
331 2 0.041393 0.943595 0.415267
220 1 0.237224 0.93829 0.304712
261 1 0.204584 0.769581 0.620898
325 2 0.183094 0.925836 0.534316
176 1 0.0603424 0.867087 0.616233
134 1 0.232993 0.920009 0.66331
291 2 0.0423701 0.846566 0.741885
63 1 0.106641 0.962891 0.747387
25 1 0.0657015 0.865682 0.866206
265 1 0.18988 0.883084 0.951651
196 1 0.24852 0.944698 0.815674
350 2 0.0523644 0.917306 0.99348
344 2 0.016936 0.763415 0.827869
313 2 0.173354 0.865579 0.758299
147 1 0.322651 0.205311 0.130034
293 2 0.389509 0.150444 0.0317501
37 1 0.38433 0.0468599 0.130508
282 1 0.474003 0.198724 0.128541
323 2 0.276053 0.0495947 0.385615
27 1 0.419942 0.0767988 0.42428
250 1 0.3564 0.0486004 0.282344
170 1 0.32397 0.180662 0.392501
211 1 0.384995 0.191622 0.259371
91 1 0.420647 0.0794216 0.595614
334 2 0.334012 0.171322 0.648876
186 1 0.370882 0.195037 0.523621
167 1 0.297569 0.00429067 0.547116
305 2 0.410156 0.0626348 0.718253
33 1 0.283261 0.0668599 0.723985
208 1 0.449409 0.217682 0.670871
215 1 0.317799 0.237725 0.948663
86 1 0.392823 0.144743 0.799604
223 1 0.340425 0.0719208 0.924191
353 2 0.475764 0.094005 0.874501
271 1 0.468796 0.0675571 0.995033
16 1 0.36013 0.395928 0.14919
184 1 0.428016 0.473717 0.0368314
253 1 0.432006 0.317891 0.0160831
5 1 0.292616 0.353185 0.0237171
276 1 0.251526 0.307048 0.216621
286 1 0.276143 0.498983 0.24393
338 2 0.314338 0.278376 0.321019
207 1 0.381939 0.471793 0.372982
165 1 0.371518 0.31525 0.430043
61 1 0.414156 0.351811 0.285686
87 1 0.340923 0.320418 0.612827
329 2 0.392239 0.38751 0.519611
273 1 0.322776 0.402217 0.719753
128 1 0.477594 0.378214 0.738576
200 1 0.266818 0.437 0.554138
332 2 0.487241 0.272442 0.518903
21 1 0.301431 0.254806 0.741156
20 1 0.488603 0.389176 0.587888
102 1 0.303534 0.389025 0.868263
10 1 0.415728 0.291384 0.853976
64 1 0.486983 0.421792 0.899242
360 2 0.324393 0.466664 0.965877
178 1 0.425088 0.608828 0.0855831
114 1 0.309246 0.640774 0.199651
118 1 0.475922 0.669669 0.206376
70 1 0.308934 0.707353 0.043057
205 1 0.285598 0.530526 0.0891606
18 1 0.428674 0.517309 0.228961
49 1 0.315538 0.637807 0.430084
141 1 0.495803 0.586124 0.357642
314 2 0.363879 0.588865 0.316328
179 1 0.374241 0.711767 0.317046
213 1 0.481493 0.514337 0.498981
308 2 0.441421 0.658379 0.436869
252 1 0.367467 0.741973 0.673081
90 1 0.417242 0.650607 0.55239
319 2 0.339935 0.587953 0.71611
297 2 0.29219 0.723854 0.520614
204 1 0.490931 0.666584 0.721251
152 1 0.273227 0.585531 0.582333
65 1 0.39517 0.509547 0.62773
349 2 0.343926 0.527876 0.502871
148 1 0.359605 0.663039 0.813973
259 1 0.409226 0.576205 0.926231
224 1 0.452499 0.53356 0.777176
139 1 0.295774 0.529409 0.811617
352 2 0.478658 0.682305 0.838022
248 1 0.259208 0.591556 0.945328
164 1 0.439761 0.893456 0.0866895
74 1 0.324273 0.918581 0.185303
194 1 0.376824 0.775287 0.16102
318 2 0.33038 0.827759 0.0448678
159 1 0.270086 0.965973 0.0567419
322 2 0.468726 0.986267 0.210766
337 2 0.497473 0.752848 0.0839223
301 2 0.34016 0.846342 0.306488
145 1 0.256234 0.773656 0.389216
188 1 0.363334 0.941059 0.407355
235 1 0.406173 0.778747 0.46257
258 1 0.469336 0.877198 0.288279
243 1 0.448803 0.931183 0.527482
40 1 0.385151 0.931299 0.669769