ITEM: TIMESTEP
0
ITEM: NUMBER OF ATOMS
360
ITEM: BOX BOUNDS pp pp pp
0.0000000000000000e+00 6.6943295008216896e+00
0.0000000000000000e+00 6.6943295008216896e+00
0.0000000000000000e+00 6.6943295008216896e+00
ITEM: ATOMS id type xs ys zs
220 1 0.128246 0.0290677 0.0944326
93 1 0.0875784 0.0411078 0.220113
185 1 0.0517133 0.163172 0.0387819
28 1 0.165165 0.167806 0.217442
322 2 0.21178 0.00623613 0.206183
206 1 0.02607 0.247736 0.140636
357 2 0.121495 0.159728 0.330225
61 1 0.00287719 0.194485 0.277081
132 1 0.122046 0.0487954 0.474349
165 1 0.134787 0.00542602 0.348582
350 2 0.102157 0.189163 0.663279
138 1 0.0359514 0.170081 0.50356
246 1 0.14314 0.249448 0.527425
143 1 0.151966 0.06251 0.660785
122 1 0.241391 0.152018 0.584069
157 1 0.0287076 0.0405391 0.979688
37 1 0.0408027 0.18854 0.879972
289 2 0.0192005 0.0627057 0.853453
217 1 0.171608 0.157749 0.981161
243 1 0.146314 0.145049 0.782742
282 1 0.165753 0.000466101 0.861501
318 2 0.217959 0.0494693 0.769975
310 2 0.211862 0.378792 0.174192
199 1 0.160906 0.253806 0.0761719
316 2 0.140579 0.471216 0.238183
287 1 0.0326239 0.398466 0.106866
64 1 0.159663 0.48028 0.0504882
334 2 0.190437 0.360804 0.057055
231 1 0.217607 0.480852 0.330003
239 1 0.0936725 0.363986 0.375674
97 1 0.0300363 0.383552 0.257014
73 1 0.133578 0.322452 0.259836
328 2 0.169864 0.2782 0.719512
212 1 0.139717 0.38102 0.74474
290 2 0.0562786 0.315344 0.664716
190 1 0.0395578 0.34042 0.522153
152 1 0.16156 0.426812 0.606484
166 1 0.203503 0.250518 0.833629
67 1 0.0493838 0.303449 0.807301
83 1 0.0615801 0.498526 0.79753
151 1 0.162254 0.383088 0.886129
292 2 0.120765 0.299298 0.987059
44 1 0.012138 0.333248 0.967587
254 1 0.0590613 0.714979 0.0761373
137 1 0.184525 0.558265 0.18326
23 1 0.00908105 0.609773 0.23821
158 1 0.0536236 0.54022 0.134738
213 1 0.226225 0.63411 0.321737
100 1 0.100342 0.506233 0.335957
154 1 0.08989 0.619434 0.384209
19 1 0.0204867 0.737528 0.45157
161 1 0.0901902 0.521542 0.497246
148 1 0.0627755 0.635794 0.537965
153 1 0.207511 0.576842 0.560216
130 1 0.146202 0.656932 0.666468
60 1 0.0617305 0.551214 0.666708
225 1 0.0146146 0.711909 0.728415
248 1 0.176556 0.712721 0.535211
49 1 0.200537 0.532851 0.719331
355 2 0.00175001 0.528859 0.579997
21 1 0.0583829 0.63654 0.967576
171 1 0.128417 0.66575 0.839663
256 1 0.183706 0.669231 0.949149
252 1 0.176549 0.533935 0.892337
340 2 0.0208311 0.73826 0.878462
323 2 0.0911187 0.759058 0.187997
113 1 0.159799 0.855183 0.186892
106 1 0.130722 0.906557 0.038866
293 2 0.00636177 0.864858 0.028971
226 1 0.195465 0.784057 0.0740385
74 1 0.0987519 0.844144 0.495945
241 1 0.156764 0.876391 0.330662
85 1 0.0318477 0.919713 0.251779
336 2 0.0189899 0.958364 0.485032
309 2 0.0634013 0.754071 0.294382
125 1 0.194439 0.757238 0.311135
326 2 0.00241989 0.76449 0.611495
163 1 0.1964 0.93128 0.605346
275 1 0.0650819 0.935059 0.698114
82 1 0.112057 0.79338 0.632523
280 1 0.235674 0.75729 0.655643
35 1 0.192297 0.899326 0.748531
312 2 0.0433933 0.812508 0.806656
189 1 0.0129874 0.929378 0.91321
62 1 0.125211 0.805414 0.94129
343 2 0.367198 0.205251 0.0973681
284 1 0.469416 0.186223 0.217812
164 1 0.451836 0.150346 0.0562999
266 1 0.477903 0.0301737 0.115419
211 1 0.316063 0.0794438 0.0816134
347 2 0.296411 0.140068 0.230037
197 1 0.378469 0.074295 0.197502
263 1 0.25318 0.227256 0.168821
65 1 0.353814 0.211104 0.303149
2 1 0.269328 0.0506227 0.290021
170 1 0.489559 0.0729329 0.364658
338 2 0.26455 0.133813 0.461835
221 1 0.255951 0.213036 0.372623
135 1 0.276852 0.243565 0.701674
270 1 0.339848 0.0246243 0.563871
351 2 0.481854 0.0425372 0.676888
167 1 0.425853 0.183351 0.500379
235 1 0.480847 0.0637821 0.554806
53 1 0.353819 0.0280254 0.704757
271 1 0.412868 0.0298201 0.846058
208 1 0.321067 0.17911 0.933123
6 1 0.267698 0.0321837 0.952053
341 2 0.283731 0.153026 0.80311
303 2 0.440514 0.109533 0.932629
101 1 0.428425 0.166528 0.750373
223 1 0.44857 0.219836 0.93317
265 1 0.408716 0.0195768 0.978543
273 1 0.364636 0.32164 0.165149
38 1 0.302544 0.285079 0.0432783
10 1 0.435741 0.467899 0.0280233
238 1 0.483306 0.291175 0.0758791
48 1 0.295725 0.474881 0.101019
229 1 0.459544 0.369158 0.249738
305 2 0.477637 0.481413 0.364306
200 1 0.355264 0.459476 0.303989
278 1 0.367014 0.347072 0.414988
147 1 0.261113 0.341094 0.32775
87 1 0.399019 0.271522 0.659567
196 1 0.366304 0.435749 0.658634
203 1 0.30786 0.499312 0.543261
264 1 0.269829 0.355971 0.588893
139 1 0.482838 0.474402 0.614621
89 1 0.486138 0.38693 0.721998
215 1 0.468982 0.395664 0.504067
123 1 0.491556 0.352679 0.964463
186 1 0.407214 0.437261 0.867151
102 1 0.318296 0.380946 0.925286
276 1 0.476391 0.272594 0.810786
195 1 0.282636 0.390403 0.763593
337 2 0.312662 0.612575 0.180859
191 1 0.403982 0.721542 0.195268
41 1 0.43458 0.595313 0.0689489
335 2 0.488357 0.648056 0.236897
348 2 0.30432 0.537202 0.00559153
227 1 0.273918 0.616059 0.0711575
114 1 0.410476 0.50423 0.169086
3 1 0.418074 0.655481 0.448397
267 1 0.263817 0.671177 0.460195
207 1 0.383222 0.621862 0.277823
59 1 0.335374 0.537261 0.41447
194 1 0.332652 0.740624 0.347099
240 1 0.490481 0.715292 0.326863
183 1 0.330308 0.607797 0.696291
58 1 0.436519 0.606433 0.61564
9 1 0.441923 0.578755 0.776658
311 2 0.299306 0.669297 0.815427
40 1 0.476054 0.694322 0.863489
249 1 0.302379 0.52105 0.823908
70 1 0.380832 0.566164 0.915898
330 2 0.390788 0.738721 0.821907
149 1 0.448639 0.735992 0.98644
145 1 0.293538 0.738714 0.994429
333 2 0.47009 0.935059 0.222442
269 1 0.257026 0.947706 0.100546
228 1 0.373241 0.924738 0.162979
182 1 0.291023 0.817398 0.186017
301 2 0.478923 0.852619 0.151876
277 1 0.447112 0.897939 0.055517
346 2 0.362822 0.824222 0.269671
218 1 0.45026 0.901927 0.346787
50 1 0.32522 0.918478 0.277316
117 1 0.393691 0.816652 0.460894
258 1 0.259232 0.85537 0.4225
216 1 0.269011 0.969174 0.467208
198 1 0.463658 0.971791 0.452981
92 1 0.319769 0.861841 0.544071
46 1 0.307155 0.885877 0.670933
299 2 0.474126 0.873258 0.675456
120 1 0.386804 0.755326 0.695026
230 1 0.377152 0.859298 0.923039
283 1 0.311482 0.952705 0.824104
34 1 0.269744 0.790038 0.791022
202 1 0.397065 0.873542 0.774416
17 1 0.252647 0.86888 0.929028
107 1 0.596915 0.222544 0.149265
84 1 0.668875 0.0838415 0.119708
306 2 0.553404 0.110067 0.0320159
29 1 0.681474 0.198231 0.0172419
86 1 0.699485 0.153224 0.231535
54 1 0.576119 0.0167539 0.225503
317 2 0.65374 0.213441 0.358915
127 1 0.591434 0.142463 0.306471
325 2 0.668231 0.0648835 0.322307
172 1 0.732173 0.13926 0.444822
159 1 0.579996 0.115571 0.495573
15 1 0.668929 0.147881 0.612004
33 1 0.729835 0.143097 0.738166
1 1 0.6626 0.026525 0.660822
262 1 0.537776 0.236113 0.670469
91 1 0.594657 0.108046 0.74678
288 1 0.65333 0.0280203 0.964033
214 1 0.577789 0.130765 0.922028
324 2 0.68422 0.15862 0.837753
68 1 0.728302 0.0267831 0.836837
160 1 0.567571 0.381416 0.150129
32 1 0.695316 0.494885 0.0705393
177 1 0.554254 0.396978 0.353315
187 1 0.713914 0.308174 0.314449
272 1 0.62857 0.459584 0.262325
81 1 0.572942 0.277206 0.409411
354 2 0.541599 0.39376 0.614643
128 1 0.653545 0.365779 0.666
236 1 0.737728 0.263523 0.581344
259 1 0.655188 0.499952 0.528834
344 2 0.705001 0.259464 0.709815
75 1 0.54453 0.271221 0.540397
307 2 0.630925 0.374084 0.525314
298 2 0.734498 0.457055 0.579372
142 1 0.722173 0.372371 0.850084
39 1 0.570787 0.385034 0.866662
8 1 0.606325 0.302787 0.941533
22 1 0.665981 0.415104 0.972053
286 1 0.563814 0.491556 0.781613
79 1 0.688197 0.484519 0.790725
274 1 0.600779 0.252272 0.780157
45 1 0.737393 0.52933 0.194795
36 1 0.601808 0.595042 0.220895
184 1 0.552589 0.676099 0.118335
224 1 0.579521 0.541181 0.0563091
319 2 0.66178 0.680512 0.0913409
118 1 0.702356 0.693196 0.236943
24 1 0.546175 0.652051 0.455146
296 2 0.582322 0.692372 0.276009
11 1 0.679273 0.630999 0.360376
78 1 0.629531 0.511492 0.389861
232 1 0.513576 0.522401 0.261921
188 1 0.619763 0.703456 0.720031
204 1 0.591071 0.550853 0.657167
94 1 0.702035 0.62054 0.741759
176 1 0.540634 0.749227 0.626085
90 1 0.675989 0.638808 0.59145
279 1 0.511498 0.523358 0.50273
210 1 0.612116 0.717358 0.883986
342 2 0.627629 0.50184 0.901629
329 2 0.546238 0.669694 0.976141
352 2 0.699 0.591002 0.976362
294 2 0.577154 0.611673 0.855988
353 2 0.686014 0.703846 0.966831
30 1 0.521524 0.517928 0.93726
126 1 0.608393 0.771296 0.0349242
144 1 0.62293 0.79332 0.224674
268 1 0.674024 0.951098 0.181413
178 1 0.592835 0.913974 0.0902211
173 1 0.734075 0.810843 0.131669
108 1 0.716009 0.950989 0.064888
95 1 0.746432 0.827491 0.285764
219 1 0.617347 0.986083 0.409807
261 1 0.56756 0.846201 0.326243
88 1 0.649812 0.758196 0.460594
110 1 0.528423 0.838549 0.498436
250 1 0.54183 0.917962 0.596354
99 1 0.704022 0.794043 0.696016
308 2 0.741801 0.917749 0.632576
255 1 0.529046 0.957013 0.728827
168 1 0.668664 0.917678 0.530157
156 1 0.659789 0.887769 0.923039
131 1 0.536744 0.814532 0.928826
209 1 0.541596 0.986977 0.956345
179 1 0.522231 0.812806 0.786388
136 1 0.634316 0.868245 0.799525
345 2 0.71998 0.80996 0.789699
5 1 0.754969 0.183338 0.126972
105 1 0.911943 0.156079 0.0880004
234 1 0.800002 0.0708127 0.156194
358 2 0.935344 0.0764909 0.23601
115 1 0.897188 0.205827 0.207639
180 1 0.970758 0.0525698 0.12663
295 2 0.832478 0.210151 0.0495271
18 1 0.977618 0.0340482 0.372923
174 1 0.798574 0.00559679 0.396144
134 1 0.895416 0.178132 0.381172
96 1 0.810918 0.123971 0.294182
297 2 0.827926 0.104797 0.490754
55 1 0.899423 0.245903 0.50077
63 1 0.876824 0.0568342 0.692974
98 1 0.980515 0.208033 0.659888
31 1 0.827103 0.158226 0.615225
260 1 0.927149 0.0544136 0.52635
150 1 0.982775 0.0845558 0.743228
27 1 0.9754 0.0154936 0.634084
320 2 0.84141 0.150245 0.733359
129 1 0.925142 0.187193 0.965327
247 1 0.771153 0.173972 0.895913
16 1 0.871591 0.0711173 0.857662
13 1 0.809936 0.0909359 0.981154
242 1 0.906025 0.200067 0.841249
304 2 0.891291 0.443082 0.0371648
119 1 0.803554 0.32004 0.148126
111 1 0.927343 0.318212 0.0659899
339 2 0.878831 0.370854 0.245746
302 2 0.803665 0.412674 0.103429
140 1 0.751594 0.320292 0.00189694
20 1 0.838144 0.275731 0.330771
7 1 0.829514 0.406557 0.396228
69 1 0.81284 0.448575 0.272089
313 2 0.92029 0.420629 0.34757
146 1 0.963831 0.411422 0.4395
133 1 0.757432 0.279221 0.453827
109 1 0.938153 0.495252 0.254195
233 1 0.859462 0.299911 0.629977
26 1 0.925375 0.463201 0.691263
193 1 0.784053 0.397068 0.67167
116 1 0.795891 0.368038 0.530417
349 2 0.757726 0.493793 0.711464
360 2 0.998399 0.389232 0.742249
359 2 0.884468 0.300242 0.915216
52 1 0.917729 0.371474 0.85053
121 1 0.769231 0.260337 0.79713
205 1 0.976134 0.460305 0.940258
327 2 0.915833 0.297283 0.761916
51 1 0.854088 0.554603 0.142972
43 1 0.855259 0.66756 0.214659
77 1 0.929789 0.595277 0.0517807
12 1 0.768522 0.693623 0.0710403
237 1 0.896443 0.580339 0.3507
331 2 0.786834 0.548373 0.304458
181 1 0.942311 0.562952 0.475993
104 1 0.762821 0.667298 0.452532
103 1 0.959882 0.733235 0.278903
356 2 0.785718 0.684933 0.322376
56 1 0.779904 0.531919 0.456635
155 1 0.788938 0.684421 0.605203
72 1 0.83229 0.609365 0.707075
281 1 0.93296 0.645601 0.577457
321 2 0.816082 0.547992 0.595958
175 1 0.872497 0.741132 0.510733
162 1 0.953337 0.589974 0.923337
112 1 0.960998 0.594769 0.790239
285 1 0.807019 0.638402 0.844311
244 1 0.791514 0.545083 0.934993
47 1 0.855085 0.515647 0.809306
332 2 0.837852 0.669299 0.982676
257 1 0.8693 0.842023 0.0440862
14 1 0.876921 0.835131 0.220137
314 2 0.835038 0.757321 0.146412
25 1 0.855454 0.986549 0.029465
300 2 0.923209 0.943184 0.189056
80 1 0.966756 0.804706 0.132793
141 1 0.806224 0.958119 0.227764
201 1 0.952945 0.750496 0.00798868
71 1 0.865194 0.898602 0.476489
192 1 0.752821 0.882906 0.414005
57 1 0.850302 0.77404 0.392276
124 1 0.89684 0.917283 0.319085
251 1 0.906329 0.808973 0.71338
42 1 0.836478 0.973467 0.58029
66 1 0.759356 0.807433 0.541242
4 1 0.970644 0.872747 0.543502
169 1 0.795055 0.881821 0.725456
315 2 0.788208 0.985629 0.757847
291 2 0.889383 0.992128 0.933972
222 1 0.806778 0.905175 0.892793
76 1 0.914201 0.957033 0.780465
253 1 0.924575 0.814684 0.844246
245 1 0.753498 0.765997 0.891578
ITEM: TIMESTEP
10000
ITEM: NUMBER OF ATOMS
360
ITEM: BOX BOUNDS pp pp pp
0.0000000000000000e+00 6.6943295008216896e+00
0.0000000000000000e+00 6.6943295008216896e+00
0.0000000000000000e+00 6.6943295008216896e+00
ITEM: ATOMS id type xs ys zs
159 1 0.238609 0.0041411 0.156699
157 1 0.232052 0.104382 0.0235395
322 2 0.24865 0.15829 0.164927
28 1 0.0777185 0.0441195 0.184303
239 1 0.128127 0.18737 0.215848
16 1 0.0842904 0.160588 0.0816475
96 1 0.0689106 0.0654946 0.329875
132 1 0.190852 0.0610947 0.44206
325 2 0.092794 0.123289 0.474566
276 1 0.112477 0.192936 0.373317
50 1 0.229713 0.098388 0.295009
336 2 0.0238934 0.000154304 0.497693
175 1 0.0128728 0.189948 0.678009
4 1 0.0860364 0.0745962 0.588744
233 1 0.0230227 0.212676 0.535595
134 1 0.214268 0.150472 0.603676
63 1 0.127146 0.0756342 0.727687
105 1 0.00607271 0.205505 0.826971
242 1 0.120545 0.12735 0.920592
44 1 0.150849 0.214557 0.765164
18 1 0.173103 0.380526 0.202025
205 1 0.136123 0.436033 0.0315238
185 1 0.114638 0.293909 0.11212
199 1 0.0275046 0.363751 0.213289
316 2 0.0522202 0.495357 0.129562
211 1 0.24853 0.250544 0.0752659
52 1 0.0968587 0.447106 0.332127
73 1 0.234353 0.432379 0.377937
339 2 0.237212 0.491583 0.269798
61 1 0.227263 0.273545 0.31314
115 1 0.0277893 0.31903 0.391574
246 1 0.190326 0.272513 0.484318
264 1 0.130964 0.298408 0.627671
123 1 0.175124 0.475795 0.624081
138 1 0.0252931 0.323709 0.746375
190 1 0.00415683 0.45273 0.609402
161 1 0.120383 0.389051 0.509397
21 1 0.115572 0.476945 0.89646
310 2 0.0812806 0.356082 0.862839
102 1 0.152759 0.278131 0.920567
334 2 0.198153 0.396381 0.938082
38 1 0.0294034 0.311629 0.993637
166 1 0.17377 0.367938 0.767864
26 1 0.00741324 0.4795 0.767129
80 1 0.0333527 0.699347 0.148434
47 1 0.11838 0.541057 0.213908
92 1 0.240787 0.634715 0.152622
64 1 0.229147 0.558411 0.0213154
41 1 0.0748952 0.597556 0.00298436
137 1 0.0296752 0.594599 0.363041
313 2 0.156371 0.532473 0.39302
153 1 0.142825 0.681674 0.409575
58 1 0.237219 0.561084 0.472673
287 1 0.231701 0.613358 0.328751
23 1 0.113227 0.680681 0.257617
49 1 0.16918 0.659776 0.579363
183 1 0.248507 0.593449 0.704011
19 1 0.0819735 0.607776 0.679385
290 2 0.058885 0.729186 0.635554
249 1 0.111073 0.743977 0.742476
231 1 0.0875768 0.538688 0.51008
202 1 0.231403 0.640277 0.908372
106 1 0.00643055 0.720529 0.882636
248 1 0.1021 0.610539 0.850245
62 1 0.143436 0.747252 0.931825
360 2 0.136157 0.519338 0.760806
309 2 0.164328 0.885324 0.00261204
25 1 0.0461978 0.828046 0.040675
2 1 0.120698 0.914771 0.146906
253 1 0.0789293 0.975167 0.0273619
125 1 0.172844 0.763948 0.132988
176 1 0.103752 0.93816 0.421024
165 1 0.172413 0.940079 0.284083
74 1 0.210189 0.817889 0.372282
326 2 0.231813 0.943423 0.387366
85 1 0.0287436 0.922908 0.290239
347 2 0.101957 0.82315 0.297539
181 1 0.0711097 0.806861 0.494635
312 2 0.23978 0.888138 0.720176
35 1 0.117116 0.919951 0.742704
203 1 0.205867 0.968523 0.562111
297 2 0.0481131 0.840011 0.677861
42 1 0.0515813 0.925375 0.583165
148 1 0.17693 0.83876 0.609902
201 1 0.0552334 0.954848 0.878345
275 1 0.208622 0.987947 0.906249
280 1 0.202351 0.856431 0.85061
350 2 0.081623 0.831524 0.84621
291 2 0.212363 0.999876 0.773865
282 1 0.370016 0.10424 0.0691823
36 1 0.482691 0.225545 0.185557
263 1 0.380805 0.112509 0.212167
147 1 0.325522 0.247512 0.203262
140 1 0.423018 0.244749 0.0168139
358 2 0.253702 0.173019 0.395099
197 1 0.391556 0.18698 0.344898
170 1 0.326171 0.0298582 0.389364
250 1 0.447897 0.0298324 0.309871
177 1 0.449905 0.173302 0.487439
221 1 0.346278 0.0522078 0.53302
27 1 0.290908 0.00633318 0.671879
167 1 0.370551 0.132801 0.661602
305 2 0.457711 0.206395 0.723387
243 1 0.495915 0.0701321 0.598096
143 1 0.254159 0.115209 0.797246
223 1 0.413572 0.154184 0.87012
217 1 0.454258 0.00380232 0.898761
357 2 0.399405 0.0850618 0.769364
37 1 0.296983 0.219929 0.921365
293 2 0.312094 0.0416689 0.95662
208 1 0.32158 0.242192 0.753876
273 1 0.298515 0.405271 0.0124067
114 1 0.256908 0.493027 0.147671
238 1 0.394763 0.384233 0.122203
207 1 0.43037 0.493147 0.232979
200 1 0.321778 0.401005 0.262818
65 1 0.340265 0.332358 0.391353
59 1 0.478845 0.44251 0.381578
324 2 0.401459 0.289702 0.281996
278 1 0.499077 0.279044 0.390937
349 2 0.432336 0.488774 0.476839
229 1 0.498909 0.364852 0.25027
186 1 0.434376 0.279433 0.631809
232 1 0.449741 0.361672 0.508801
342 2 0.375515 0.411492 0.616383
267 1 0.283319 0.410742 0.531582
195 1 0.289559 0.283812 0.614642
135 1 0.344584 0.387075 0.729692
139 1 0.499167 0.411675 0.646649
335 2 0.327394 0.252642 0.503492
128 1 0.483149 0.337449 0.78715
224 1 0.405858 0.492682 0.841315
87 1 0.303103 0.348195 0.870867
294 2 0.296061 0.497871 0.923685
10 1 0.448979 0.396171 0.93283
48 1 0.258688 0.495071 0.808368
346 2 0.320301 0.673138 0.0272034
314 2 0.368798 0.581329 0.169384
277 1 0.463089 0.636801 0.0382957
240 1 0.365568 0.71795 0.147144
184 1 0.375143 0.518575 0.063337
337 2 0.30391 0.684157 0.392972
213 1 0.360604 0.528146 0.370138
194 1 0.380433 0.635692 0.28457
145 1 0.269423 0.740546 0.271866
286 1 0.398125 0.658108 0.457374
299 2 0.485407 0.737675 0.258368
261 1 0.272386 0.745444 0.495791
40 1 0.424131 0.669063 0.638572
252 1 0.406644 0.514191 0.70199
152 1 0.331172 0.537912 0.575351
348 2 0.317483 0.661286 0.605947
353 2 0.498693 0.586853 0.719131
259 1 0.478961 0.561576 0.566312
70 1 0.374659 0.593239 0.933082
311 2 0.30912 0.623353 0.81185
9 1 0.461726 0.655123 0.808357
34 1 0.35319 0.735336 0.882469
265 1 0.286023 0.944483 0.0377025
230 1 0.469538 0.83978 0.153721
228 1 0.388786 0.97492 0.162062
330 2 0.377161 0.86091 0.0861927
301 2 0.375609 0.801386 0.243403
216 1 0.289622 0.857382 0.170191
150 1 0.469758 0.933264 0.0237397
191 1 0.277971 0.795108 0.0364474
271 1 0.439185 0.792181 0.00118591
258 1 0.487029 0.878532 0.304142
220 1 0.325282 0.900428 0.316107
269 1 0.395196 0.774509 0.356857
117 1 0.306367 0.888402 0.475504
99 1 0.445051 0.948385 0.448203
53 1 0.44383 0.786082 0.721174
323 2 0.400457 0.931957 0.58105
188 1 0.311175 0.828139 0.624849
122 1 0.435962 0.821098 0.52568
163 1 0.445528 0.954987 0.70765
196 1 0.278755 0.757264 0.745243
283 1 0.338338 0.873491 0.914907
351 2 0.3567 0.85313 0.783777
318 2 0.47912 0.783205 0.863279
260 1 0.336306 0.979223 0.818582
284 1 0.61642 0.16485 0.180779
343 2 0.553231 0.200884 0.0726164
86 1 0.654441 0.104426 0.0421379
172 1 0.725295 0.0299255 0.156986
164 1 0.50136 0.0799446 0.120226
219 1 0.577493 0.010064 0.224477
270 1 0.690465 0.228603 0.410762
198 1 0.567717 0.143957 0.388027
81 1 0.674061 0.0679065 0.329122
7 1 0.745436 0.192441 0.265834
308 2 0.721719 0.0655011 0.472119
15 1 0.568328 0.0296012 0.473827
333 2 0.530586 0.148883 0.271033
328 2 0.714901 0.0731341 0.730786
71 1 0.65947 0.132499 0.552455
262 1 0.61733 0.0212076 0.66256
101 1 0.591245 0.202372 0.688671
142 1 0.726066 0.178508 0.69218
288 1 0.528269 0.150847 0.966515
214 1 0.565692 0.220092 0.828399
6 1 0.519236 0.0702873 0.785323
247 1 0.671364 0.0907337 0.846422
22 1 0.715381 0.40453 0.0115624
119 1 0.686418 0.284526 0.138322
69 1 0.628109 0.423472 0.200057
32 1 0.546889 0.322148 0.0819206
302 2 0.574546 0.423285 0.0118913
54 1 0.62571 0.407175 0.354178
146 1 0.734344 0.342413 0.281127
272 1 0.612808 0.264735 0.297969
45 1 0.711972 0.407777 0.475379
160 1 0.576429 0.488298 0.507295
24 1 0.631601 0.365841 0.61974
332 2 0.717228 0.45322 0.719263
91 1 0.579528 0.274513 0.510518
39 1 0.599408 0.384773 0.893155
72 1 0.721402 0.476514 0.844316
274 1 0.634336 0.354627 0.755699
215 1 0.547699 0.48664 0.776725
89 1 0.64033 0.2673 0.97205
327 2 0.509008 0.285729 0.917123
8 1 0.733691 0.327785 0.871566
111 1 0.660071 0.571793 0.14858
329 2 0.590466 0.640868 0.0457045
126 1 0.718036 0.726157 0.13237
118 1 0.509924 0.637623 0.173987
107 1 0.520823 0.505679 0.102818
315 2 0.64929 0.689491 0.400174
144 1 0.615209 0.69084 0.260296
319 2 0.649618 0.52352 0.404653
168 1 0.522968 0.608402 0.39888
11 1 0.737433 0.606938 0.375917
51 1 0.578465 0.547305 0.268828
75 1 0.612254 0.513295 0.651987
204 1 0.574205 0.672799 0.682426
155 1 0.542637 0.690258 0.513487
90 1 0.672882 0.596661 0.519103
344 2 0.745333 0.614592 0.65123
298 2 0.649934 0.696468 0.596345
279 1 0.66819 0.598788 0.801372
94 1 0.563457 0.687924 0.941445
30 1 0.507313 0.524376 0.953547
210 1 0.656669 0.536231 0.998073
359 2 0.697877 0.948002 0.0408011
178 1 0.57678 0.750542 0.0914511
306 2 0.687003 0.829294 0.0374322
266 1 0.603032 0.916971 0.102854
268 1 0.630671 0.831572 0.224648
218 1 0.627819 0.919976 0.39012
179 1 0.572361 0.78202 0.380412
66 1 0.733343 0.773701 0.361143
141 1 0.726969 0.935895 0.280431
338 2 0.58715 0.837366 0.489403
56 1 0.5947 0.803268 0.619539
285 1 0.728063 0.803219 0.515676
131 1 0.728824 0.909354 0.683099
341 2 0.61799 0.89212 0.706021
110 1 0.671765 0.948559 0.546142
235 1 0.528418 0.93626 0.579754
149 1 0.748977 0.765464 0.718722
156 1 0.664477 0.895157 0.825221
120 1 0.522747 0.903023 0.804786
33 1 0.606286 0.976651 0.951912
209 1 0.582542 0.834829 0.96575
255 1 0.588966 0.762458 0.797767
79 1 0.707109 0.756858 0.883763
180 1 0.802149 0.140873 0.11408
295 2 0.867972 0.0337606 0.137584
206 1 0.962306 0.225234 0.139225
108 1 0.965046 0.0666205 0.0765117
13 1 0.905443 0.196944 0.00437457
300 2 0.818084 0.1018 0.24599
133 1 0.956135 0.120776 0.249319
317 2 0.859569 0.0928118 0.00415145
320 2 0.814501 0.200425 0.41519
192 1 0.9697 0.16675 0.401045
57 1 0.828112 0.0796883 0.364758
169 1 0.818713 0.145984 0.536413
1 1 0.795998 0.0334939 0.623391
76 1 0.881009 0.140451 0.717878
104 1 0.927982 0.0752565 0.579855
68 1 0.845015 0.177658 0.854115
130 1 0.984909 0.0496145 0.780301
129 1 0.769505 0.0373376 0.93026
98 1 0.979351 0.0907308 0.927014
136 1 0.815243 0.027102 0.775847
222 1 0.757031 0.184547 0.972423
5 1 0.759968 0.442223 0.149213
151 1 0.967239 0.406707 0.0918487
187 1 0.830863 0.30216 0.142532
97 1 0.887616 0.391933 0.24416
244 1 0.848694 0.343353 0.00767812
20 1 0.822005 0.378138 0.400708
31 1 0.908039 0.285313 0.471302
116 1 0.989016 0.437576 0.463729
100 1 0.912326 0.497302 0.363689
236 1 0.766305 0.483757 0.303132
113 1 0.889423 0.254376 0.293694
354 2 0.79379 0.488808 0.431023
121 1 0.784106 0.343029 0.686626
78 1 0.860576 0.395163 0.54451
55 1 0.877961 0.264099 0.615467
307 2 0.90697 0.384083 0.675575
193 1 0.766211 0.492106 0.61341
355 2 0.999774 0.343599 0.571742
127 1 0.751105 0.279847 0.544126
12 1 0.854418 0.47752 0.985004
227 1 0.862365 0.463574 0.756906
158 1 0.957865 0.411268 0.890781
67 1 0.883546 0.31655 0.806834
292 2 0.925637 0.281443 0.916813
352 2 0.82469 0.414795 0.876292
340 2 0.86937 0.690961 0.138236
256 1 0.956884 0.693822 0.0263083
77 1 0.800387 0.596782 0.0945529
17 1 0.953801 0.570116 0.114276
109 1 0.783627 0.628957 0.235121
304 2 0.874693 0.514283 0.193384
257 1 0.788536 0.741652 0.0170512
162 1 0.985314 0.501223 0.23905
14 1 0.928439 0.644091 0.242659
296 2 0.971092 0.566557 0.468163
331 2 0.857596 0.737116 0.367465
103 1 0.894381 0.632694 0.404869
356 2 0.766102 0.678433 0.475266
3 1 0.999131 0.746116 0.361479
345 2 0.858654 0.724391 0.737844
60 1 0.91504 0.577077 0.648749
88 1 0.834345 0.573332 0.522972
212 1 0.832113 0.69986 0.622823
154 1 0.98594 0.684062 0.520776
112 1 0.767267 0.616693 0.928381
225 1 0.853502 0.735642 0.870546
83 1 0.927877 0.562806 0.860017
171 1 0.970246 0.669181 0.753234
189 1 0.808472 0.60143 0.776027
43 1 0.894853 0.822514 0.0902257
182 1 0.951985 0.797483 0.220587
289 2 0.957614 0.929823 0.0206778
124 1 0.827791 0.964967 0.0392078
95 1 0.802638 0.777379 0.24342
226 1 0.973122 0.932912 0.153779
173 1 0.765148 0.8814 0.148715
234 1 0.882521 0.972828 0.257613
237 1 0.781081 0.945089 0.43157
174 1 0.89576 0.861533 0.359893
303 2 0.986307 0.868595 0.436692
241 1 0.883799 0.761069 0.48446
93 1 0.94191 0.996974 0.403457
251 1 0.882107 0.909848 0.53664
82 1 0.933502 0.94749 0.676606
321 2 0.844588 0.852197 0.639004
281 1 0.950863 0.786918 0.613674
29 1 0.897017 0.981021 0.88561
245 1 0.827072 0.876049 0.799452
254 1 0.935017 0.841276 0.918187
46 1 0.974948 0.832801 0.775693
84 1 0.771779 0.875528 0.940465
