ITEM: TIMESTEP
0
ITEM: NUMBER OF ATOMS
360
ITEM: BOX BOUNDS pp pp pp
0.0000000000000000e+00 6.6943295008216896e+00
0.0000000000000000e+00 6.6943295008216896e+00
0.0000000000000000e+00 6.6943295008216896e+00
ITEM: ATOMS id type xs ys zs
317 2 0.199109 0.172601 0.0875875
103 1 0.242198 0.0607813 0.128041
104 1 0.0748527 0.0999099 0.141608
206 1 0.0207356 0.245405 0.075974
133 1 0.164315 0.0564003 0.0026071
188 1 0.128467 0.139936 0.289018
246 1 0.23085 0.135098 0.415845
233 1 0.0980633 0.0616864 0.433181
220 1 0.224015 0.0140327 0.29572
330 2 0.0348108 0.0447505 0.312423
254 1 0.0296697 0.183271 0.667723
195 1 0.043169 0.0339082 0.650188
80 1 0.165057 0.102974 0.730965
117 1 0.195374 0.111854 0.573577
35 1 0.0554158 0.213597 0.518944
276 1 0.0914672 0.0776464 0.871548
13 1 0.0522697 0.221432 0.823079
222 1 0.107393 0.196477 0.968041
323 2 0.179909 0.177295 0.846864
282 1 0.249584 0.0385422 0.876002
291 2 0.00718735 0.0945591 0.766994
52 1 0.213796 0.391463 0.149396
359 2 0.0868437 0.345402 0.104811
231 1 0.0612624 0.469025 0.204286
62 1 0.186556 0.313732 0.0311309
48 1 0.119883 0.459659 0.0366589
199 1 0.151642 0.252741 0.188126
198 1 0.0665154 0.349528 0.284589
329 2 0.0853746 0.465069 0.32915
221 1 0.209379 0.370434 0.30556
152 1 0.133931 0.392508 0.450064
308 2 0.224687 0.48865 0.42028
250 1 0.123081 0.253213 0.386182
193 1 0.103887 0.321863 0.611208
138 1 0.134794 0.477357 0.684187
196 1 0.171299 0.253912 0.725563
100 1 0.0505051 0.48081 0.56165
287 1 0.203935 0.484928 0.541973
40 1 0.221306 0.260849 0.504746
151 1 0.0426698 0.354629 0.981213
335 2 0.160207 0.402165 0.92022
232 1 0.119471 0.381133 0.798777
244 1 0.203842 0.285731 0.873479
351 2 0.170278 0.670088 0.152776
272 1 0.022552 0.580425 0.0229519
205 1 0.187104 0.53546 0.138937
158 1 0.0490762 0.643391 0.148379
189 1 0.181159 0.625773 0.019565
185 1 0.111983 0.660199 0.310724
172 1 0.011649 0.708196 0.403592
14 1 0.105998 0.557777 0.427332
87 1 0.194564 0.524005 0.287487
314 2 0.0106488 0.60339 0.498105
43 1 0.00133139 0.611538 0.621461
75 1 0.239554 0.672677 0.745491
336 2 0.141279 0.596745 0.621197
23 1 0.139218 0.6714 0.512191
121 1 0.0616691 0.744196 0.743895
98 1 0.218882 0.54171 0.80557
249 1 0.065824 0.67652 0.904819
292 2 0.18341 0.652016 0.865033
17 1 0.105617 0.525408 0.895751
60 1 0.0775734 0.592643 0.750905
350 2 0.187264 0.886187 0.0760545
283 1 0.0707461 0.957605 0.0869464
248 1 0.0975386 0.764612 0.200831
318 2 0.163254 0.967062 0.181961
202 1 0.108974 0.759354 0.0459815
92 1 0.244851 0.777804 0.143965
73 1 0.0502544 0.932952 0.225163
290 2 0.0312428 0.80923 0.292321
50 1 0.0953072 0.903753 0.378394
122 1 0.185497 0.866549 0.254429
114 1 0.173959 0.767473 0.384072
167 1 0.185445 0.969757 0.653484
347 2 0.248231 0.86114 0.590817
343 2 0.159322 0.856428 0.715119
183 1 0.0351499 0.876348 0.664763
145 1 0.135359 0.855047 0.516684
58 1 0.0116266 0.762976 0.562454
313 2 0.146785 0.996646 0.53182
203 1 0.157272 0.752045 0.63843
316 2 0.01944 0.834688 0.990453
134 1 0.158796 0.796294 0.848416
28 1 0.12908 0.938542 0.794266
25 1 0.137209 0.896712 0.951179
120 1 0.363391 0.104619 0.0462187
37 1 0.447324 0.193245 0.160686
242 1 0.301382 0.23762 0.133855
147 1 0.365252 0.0676849 0.218263
47 1 0.271659 0.201867 0.28978
27 1 0.409074 0.0834306 0.361406
332 2 0.407155 0.179283 0.272745
101 1 0.496158 0.180026 0.455119
324 2 0.306927 0.00453825 0.400074
165 1 0.350357 0.227996 0.404315
325 2 0.456439 0.0626034 0.507767
33 1 0.440544 0.139753 0.620542
280 1 0.285652 0.202526 0.65176
99 1 0.346853 0.0118525 0.613328
91 1 0.313061 0.0579609 0.7447
247 1 0.345695 0.109813 0.507365
21 1 0.39594 0.104045 0.883768
271 1 0.478593 0.182987 0.770785
105 1 0.252986 0.175768 0.966367
139 1 0.298479 0.186829 0.800572
312 2 0.412849 0.0135716 0.958643
153 1 0.339203 0.378789 0.0614819
16 1 0.462908 0.370639 0.131154
207 1 0.334676 0.346253 0.234987
286 1 0.333335 0.489978 0.187427
275 1 0.412421 0.256787 0.00343695
39 1 0.339286 0.469377 0.345992
127 1 0.454253 0.29799 0.310278
143 1 0.295444 0.392933 0.47004
208 1 0.438777 0.379161 0.435754
253 1 0.494017 0.454829 0.253508
348 2 0.250591 0.302471 0.395642
180 1 0.408098 0.396195 0.605975
64 1 0.395978 0.301608 0.723718
238 1 0.372343 0.270324 0.546206
342 2 0.323404 0.489028 0.563114
163 1 0.257014 0.369283 0.64907
224 1 0.279897 0.387722 0.802491
12 1 0.271576 0.448706 0.946105
169 1 0.385958 0.31296 0.87001
135 1 0.423951 0.468712 0.839133
357 2 0.301087 0.317062 0.966339
215 1 0.341214 0.644059 0.080795
5 1 0.475317 0.524259 0.120108
118 1 0.408705 0.622637 0.212157
49 1 0.254939 0.661992 0.249767
178 1 0.478118 0.657197 0.016472
360 2 0.270041 0.519189 0.0512733
61 1 0.369324 0.564743 0.45939
126 1 0.336139 0.732579 0.375024
259 1 0.467078 0.555861 0.344669
194 1 0.250993 0.622629 0.411582
273 1 0.288119 0.606061 0.584661
213 1 0.441545 0.555461 0.635151
261 1 0.355944 0.727028 0.663049
297 2 0.386013 0.729489 0.538174
349 2 0.473921 0.667496 0.690989
200 1 0.268041 0.738733 0.518231
10 1 0.312771 0.50176 0.688787
56 1 0.382229 0.615573 0.78168
352 2 0.429572 0.604877 0.897775
267 1 0.312709 0.597275 0.921956
148 1 0.32441 0.739826 0.844428
319 2 0.388162 0.708375 0.968624
102 1 0.403253 0.504467 0.995866
204 1 0.489178 0.705636 0.852288
240 1 0.25028 0.749281 0.988503
265 1 0.312204 0.953146 0.0290766
230 1 0.440202 0.938315 0.143109
141 1 0.373532 0.81039 0.0556959
125 1 0.283384 0.935551 0.168052
95 1 0.386899 0.769072 0.204819
179 1 0.266116 0.878056 0.383442
258 1 0.478736 0.799273 0.440498
74 1 0.366545 0.924747 0.278188
155 1 0.431398 0.943633 0.411165
299 2 0.42309 0.829151 0.328695
346 2 0.276443 0.789339 0.277522
71 1 0.494894 0.949978 0.55242
305 2 0.38937 0.898382 0.676802
243 1 0.362263 0.858779 0.548006
201 1 0.275937 0.879812 0.726392
252 1 0.486469 0.775963 0.599184
269 1 0.468509 0.975434 0.694373
186 1 0.266676 0.965137 0.504887
53 1 0.440686 0.821938 0.761846
70 1 0.414891 0.834457 0.913632
34 1 0.266662 0.892022 0.881277
260 1 0.402218 0.954324 0.828907
326 2 0.627918 0.0219149 0.0913551
15 1 0.507989 0.0635116 0.079332
150 1 0.689793 0.125825 0.040699
197 1 0.622087 0.166296 0.162495
278 1 0.548846 0.0283946 0.238514
192 1 0.68161 0.0938227 0.308474
270 1 0.533449 0.168749 0.300888
209 1 0.560114 0.0428936 0.402065
175 1 0.686837 0.160426 0.454293
294 2 0.652555 0.213168 0.286321
255 1 0.691529 0.180431 0.635006
345 2 0.571132 0.155631 0.695967
177 1 0.581346 0.0988809 0.55799
81 1 0.619805 0.0649186 0.748298
334 2 0.603665 0.214389 0.53029
85 1 0.717941 0.0170627 0.630906
79 1 0.525273 0.0252232 0.870366
29 1 0.685723 0.13784 0.864831
164 1 0.557818 0.175115 0.937592
32 1 0.616124 0.248343 0.786883
211 1 0.609387 0.419464 0.134786
279 1 0.700974 0.294009 0.130732
140 1 0.584813 0.300334 0.220535
288 1 0.557383 0.262831 0.0610088
302 2 0.744388 0.360055 0.00492096
54 1 0.634254 0.489407 0.318504
295 2 0.553503 0.408985 0.374819
115 1 0.671366 0.412631 0.442097
146 1 0.593632 0.286488 0.381695
55 1 0.749146 0.288306 0.367457
144 1 0.728942 0.377671 0.251772
142 1 0.661902 0.337392 0.668709
149 1 0.718467 0.467975 0.598657
20 1 0.559234 0.336311 0.518849
8 1 0.725176 0.292441 0.539658
6 1 0.531661 0.256114 0.637379
59 1 0.584955 0.484617 0.664694
51 1 0.514146 0.490188 0.507984
45 1 0.527438 0.367214 0.771752
309 2 0.512012 0.310303 0.883726
217 1 0.638601 0.322742 0.932234
19 1 0.647923 0.455573 0.8119
306 2 0.540953 0.443581 0.884262
128 1 0.650268 0.445915 0.981723
311 2 0.747338 0.386686 0.760738
18 1 0.508192 0.39493 0.998044
333 2 0.643155 0.741626 0.140077
113 1 0.734258 0.562167 0.00459896
46 1 0.699562 0.724956 0.0179008
184 1 0.616762 0.606372 0.0734997
159 1 0.520407 0.738673 0.136642
83 1 0.722477 0.528176 0.203086
69 1 0.577629 0.606816 0.212596
168 1 0.717392 0.62146 0.316573
304 2 0.606639 0.676733 0.4064
341 2 0.575559 0.545257 0.406315
67 1 0.679187 0.570799 0.490723
277 1 0.629101 0.744643 0.268984
97 1 0.504976 0.70865 0.33104
237 1 0.500235 0.645666 0.47837
22 1 0.582075 0.632499 0.608263
66 1 0.746612 0.634457 0.611094
235 1 0.651675 0.620672 0.728693
225 1 0.559614 0.565964 0.948119
111 1 0.686467 0.590885 0.868349
262 1 0.525055 0.565104 0.783059
293 2 0.60242 0.685186 0.931564
11 1 0.665852 0.748753 0.840318
239 1 0.599322 0.891528 0.1049
234 1 0.708404 0.852082 0.201152
353 2 0.686504 0.842045 0.00150811
266 1 0.684068 0.999735 0.191998
322 2 0.545297 0.901705 0.385737
285 1 0.638468 0.797398 0.402264
228 1 0.661724 0.930631 0.339547
263 1 0.536512 0.864269 0.256488
321 2 0.554837 0.867139 0.643628
90 1 0.568182 0.758559 0.72354
82 1 0.62824 0.769709 0.565724
245 1 0.737996 0.800036 0.714205
156 1 0.655394 0.934244 0.510059
268 1 0.630543 0.899536 0.743542
210 1 0.720266 0.887106 0.880203
223 1 0.502487 0.935976 0.992064
110 1 0.560811 0.850719 0.863076
136 1 0.638687 0.989383 0.979218
86 1 0.543543 0.78403 0.998273
137 1 0.879942 0.199976 0.115373
38 1 0.944168 0.0426548 0.236155
36 1 0.814824 0.0700526 0.153983
358 2 0.941967 0.0773432 0.116951
328 2 0.775243 0.22327 0.0579208
170 1 0.99252 0.210331 0.220985
89 1 0.768589 0.197875 0.229127
57 1 0.80706 0.138701 0.369283
264 1 0.983033 0.152634 0.362554
123 1 0.882713 0.238576 0.464124
84 1 0.797248 0.00742042 0.28813
44 1 0.760158 0.024783 0.438954
236 1 0.932997 0.0159434 0.382366
338 2 0.888488 0.165012 0.253965
76 1 0.970119 0.0783424 0.513689
94 1 0.895894 0.0951225 0.678474
68 1 0.819991 0.119832 0.547863
339 2 0.930965 0.200221 0.564537
227 1 0.847619 0.243248 0.64137
4 1 0.753254 0.107116 0.744389
129 1 0.933806 0.239479 0.92934
63 1 0.928019 0.069921 0.860435
108 1 0.780368 0.0301521 0.882794
327 2 0.823126 0.157058 0.868065
42 1 0.90934 0.214281 0.778389
300 2 0.852756 0.00982554 0.979023
214 1 0.84181 0.12917 0.994535
132 1 0.991961 0.0995669 0.992283
30 1 0.788386 0.42236 0.106096
256 1 0.969962 0.355328 0.165834
354 2 0.831775 0.320952 0.207101
88 1 0.90077 0.347379 0.0316367
310 2 0.985117 0.425902 0.0619715
31 1 0.878475 0.432409 0.248234
296 2 0.846244 0.370159 0.386687
161 1 0.98481 0.336605 0.432979
355 2 0.965604 0.4126 0.3381
116 1 0.975471 0.489054 0.441336
181 1 0.789936 0.489684 0.399587
274 1 0.903874 0.297769 0.308467
174 1 0.963156 0.328851 0.582479
166 1 0.983346 0.347847 0.718015
212 1 0.826851 0.388863 0.65599
1 1 0.846464 0.395521 0.507731
78 1 0.9305 0.485179 0.654292
112 1 0.95659 0.462311 0.9421
337 2 0.878133 0.441914 0.757683
241 1 0.872424 0.338868 0.826742
187 1 0.762625 0.419394 0.885465
301 2 0.837356 0.482192 0.996615
107 1 0.773439 0.258024 0.924747
320 2 0.988556 0.338915 0.863565
281 1 0.991278 0.481498 0.799486
26 1 0.757413 0.257079 0.76223
216 1 0.906583 0.691192 0.129317
229 1 0.925811 0.506499 0.126632
315 2 0.812614 0.558413 0.106992
182 1 0.874046 0.598139 0.0035218
96 1 0.850571 0.593104 0.244782
160 1 0.754394 0.676294 0.150047
162 1 0.884396 0.620753 0.399317
65 1 0.756498 0.704175 0.449808
77 1 0.943165 0.731935 0.269372
190 1 0.989123 0.550195 0.297385
298 2 0.853442 0.59318 0.648467
24 1 0.765319 0.522649 0.73235
251 1 0.844449 0.546012 0.530193
154 1 0.871752 0.688657 0.546928
173 1 0.798768 0.668587 0.749044
257 1 0.947246 0.685235 0.809259
191 1 0.813398 0.689667 0.897986
356 2 0.95059 0.620524 0.907997
72 1 0.855029 0.537143 0.847208
119 1 0.938416 0.737441 0.986158
331 2 0.795957 0.93429 0.162649
124 1 0.806494 0.820738 0.0945788
2 1 0.975023 0.822157 0.10793
93 1 0.905767 0.962264 0.0917452
303 2 0.840292 0.771919 0.206166
157 1 0.877637 0.879827 0.240688
131 1 0.763683 0.959828 0.0374027
284 1 0.786542 0.874826 0.411964
219 1 0.945259 0.846854 0.372662
109 1 0.773756 0.767115 0.31062
340 2 0.869795 0.750752 0.410898
171 1 0.860709 0.959917 0.591581
307 2 0.899249 0.907961 0.702318
3 1 0.774221 0.838428 0.561948
9 1 0.913563 0.767003 0.692429
289 2 0.88362 0.846637 0.503912
176 1 0.997001 0.917887 0.503127
7 1 0.95982 0.955042 0.793312
41 1 0.873759 0.872806 0.974175
130 1 0.847199 0.82115 0.821072
344 2 0.860405 0.934645 0.8637
218 1 0.790538 0.951379 0.752675
226 1 0.992354 0.956139 0.94953
106 1 0.998947 0.833418 0.861436
ITEM: TIMESTEP
50000
ITEM: NUMBER OF ATOMS
360
ITEM: BOX BOUNDS pp pp pp
0.0000000000000000e+00 6.6943295008216896e+00
0.0000000000000000e+00 6.6943295008216896e+00
0.0000000000000000e+00 6.6943295008216896e+00
ITEM: ATOMS id type xs ys zs
104 1 0.032122 0.136724 0.133532
242 1 0.1852 0.120034 0.208927
207 1 0.144689 0.104348 0.0334198
112 1 -0.000186511 0.193912 0.00721637
33 1 0.0460183 0.158292 0.282148
188 1 0.108914 0.00907516 0.2671
246 1 0.0550981 0.0485721 0.410634
208 1 0.164676 0.153537 0.387232
193 1 0.0273873 0.200262 0.441638
306 2 0.196277 0.23954 0.292075
139 1 0.0703789 0.136567 0.596081
305 2 0.14742 0.1928 0.509469
63 1 0.132839 0.132621 0.753686
233 1 0.183283 0.0731651 0.519597
105 1 0.138114 -0.0022051 0.653151
7 1 0.239274 0.00306128 0.763986
222 1 0.124012 0.0244011 0.881228
117 1 0.111001 0.17799 0.895166
292 2 0.209116 0.230345 0.750797
320 2 0.00876017 0.18859 0.827139
236 1 0.0330463 0.339376 0.067832
48 1 0.194089 0.403467 0.0959783
221 1 0.112261 0.419648 0.222805
52 1 0.119671 0.262984 0.180904
287 1 0.0798904 0.306758 0.317501
338 2 0.100126 0.408687 0.375524
163 1 0.158272 0.304563 0.452748
231 1 0.195414 0.459342 0.450361
126 1 0.22974 0.379609 0.319919
348 2 0.232136 0.374954 0.574224
190 1 0.088324 0.418735 0.543964
243 1 0.147397 0.41136 0.705775
356 2 0.0163111 0.390351 0.676896
196 1 0.129368 0.282288 0.623047
158 1 0.116845 0.439912 0.942311
232 1 0.185409 0.341288 0.844121
151 1 0.0487684 0.311474 0.913266
78 1 0.0769166 0.283902 0.76835
249 1 0.186555 0.278346 0.991127
100 1 0.0317112 0.440645 0.810408
301 2 0.0289492 0.615002 0.140264
61 1 0.256201 0.616305 0.112286
118 1 0.131644 0.640573 0.213089
182 1 0.117496 0.521501 0.0918141
202 1 0.118071 0.652406 0.0210569
178 1 0.0400805 0.740948 0.124052
103 1 0.246302 0.738334 -0.00617995
185 1 0.190373 0.695469 0.35476
146 1 0.150361 0.53144 0.317424
109 1 0.0525935 0.654926 0.36385
310 2 0.127382 0.666137 0.45917
115 1 0.0410694 0.522593 0.425777
274 1 0.236296 0.606587 0.480222
329 2 0.250945 0.595775 0.258617
96 1 0.0750463 0.591312 0.561113
165 1 0.191683 0.688589 0.604292
91 1 0.210424 0.529485 0.611398
90 1 0.221369 0.625443 0.740112
121 1 0.0874969 0.561866 0.714964
28 1 0.00485028 0.710955 0.668134
257 1 0.220111 0.574353 0.937139
183 1 0.166966 0.703537 0.867129
113 1 0.0633974 0.580337 0.863777
313 2 0.0661723 0.675392 0.769682
181 1 0.0377615 0.731932 0.928284
173 1 0.183101 0.495933 0.819662
220 1 0.0641539 0.887295 0.201487
159 1 0.197877 0.956012 0.15092
230 1 0.17044 0.797035 0.168942
240 1 0.119294 0.837063 0.0382681
359 2 0.0717 0.987824 0.141191
283 1 0.0441988 0.973953 9.41786e-05
355 2 0.139541 0.942046 0.393546
147 1 0.201681 0.877202 0.306622
280 1 0.201924 0.781137 0.481283
200 1 0.0794997 0.820082 0.404254
125 1 0.245632 0.938785 0.454053
315 2 0.091878 0.789134 0.2759
229 1 0.00369281 0.915917 0.330312
244 1 0.0835971 0.938681 0.508429
131 1 0.0318415 0.870266 0.636174
282 1 0.219643 0.87779 0.634641
289 2 0.11621 0.774064 0.640829
248 1 0.0606649 0.749919 0.53285
323 2 0.135913 0.890415 0.739849
340 2 0.0335261 0.970127 0.723362
34 1 0.205123 0.776981 0.743898
344 2 0.0074603 0.852329 0.963495
43 1 0.0643071 0.799168 0.77678
62 1 0.195077 0.958813 1.00144
119 1 0.153826 0.870182 0.881387
66 1 0.00432958 0.933982 0.849973
263 1 0.415498 0.13838 0.087332
217 1 0.267999 0.194454 0.078101
27 1 0.337714 0.0717524 0.218469
21 1 0.301508 0.0471791 0.0814119
317 2 0.418916 0.00750667 0.133349
64 1 0.315928 0.122896 0.466103
328 2 0.383432 0.10605 0.356716
270 1 0.45746 0.171348 0.276889
194 1 0.398456 0.229642 0.413286
152 1 0.301026 0.193089 0.300673
247 1 0.25084 0.0412486 0.336662
345 2 0.258407 0.220676 0.424092
224 1 0.382675 0.209284 0.692704
155 1 0.382512 0.0479919 0.690011
6 1 0.473708 0.137684 0.600594
308 2 0.34833 0.150198 0.593046
12 1 0.262355 0.235524 0.548307
167 1 0.295225 0.00374582 0.58613
40 1 0.432971 0.00435513 0.529355
120 1 0.244141 0.130303 0.658885
25 1 0.410579 0.0560358 0.96254
169 1 0.463051 0.140264 0.829
342 2 0.332348 0.0458979 0.8519
45 1 0.301827 0.160803 0.801902
265 1 0.380621 0.210348 0.951232
20 1 0.264289 0.0970487 0.942238
302 2 0.264255 0.226889 0.914474
128 1 0.381986 0.430571 0.205584
37 1 0.357858 0.362616 0.0561856
205 1 0.469158 0.464438 0.0767006
39 1 0.417582 0.266882 0.170327
198 1 0.272972 0.308568 0.199521
272 1 0.242637 0.480095 0.207326
360 2 0.427981 0.369088 0.450527
14 1 0.301823 0.361624 0.450339
307 2 0.495567 0.273243 0.312297
213 1 0.371881 0.336302 0.320602
143 1 0.453818 0.463342 0.344875
75 1 0.406048 0.372169 0.715375
4 1 0.412467 0.306578 0.55844
180 1 0.34378 0.444226 0.570732
23 1 0.272392 0.325478 0.673025
204 1 0.48198 0.48924 0.637562
148 1 0.438463 0.383459 0.933751
254 1 0.331774 0.305864 0.830988
335 2 0.295796 0.422437 0.806332
134 1 0.285748 0.432325 0.938837
255 1 0.498784 0.283159 0.822872
102 1 0.362407 0.584924 -0.00128333
98 1 0.368036 0.592351 0.229734
357 2 0.36242 0.540787 0.116555
49 1 0.438358 0.659921 0.119132
346 2 0.313027 0.744488 0.109686
87 1 0.302856 0.736016 0.253737
352 2 0.262646 0.512601 0.0392478
99 1 0.339196 0.658877 0.384113
290 2 0.424801 0.755389 0.361282
341 2 0.477626 0.57333 0.295438
259 1 0.477323 0.700586 0.265803
68 1 0.399742 0.541354 0.474182
237 1 0.296237 0.516513 0.369661
201 1 0.338679 0.612714 0.593816
106 1 0.33861 0.521847 0.7146
336 2 0.421502 0.687574 0.635685
325 2 0.300421 0.706272 0.51542
179 1 0.427778 0.731372 0.504954
67 1 0.502256 0.61063 0.734022
350 2 0.289303 0.64787 0.855213
267 1 0.46848 0.656743 0.892593
86 1 0.417929 0.516628 0.852453
22 1 0.370907 0.671797 0.757011
95 1 0.418136 0.814405 0.158513
13 1 0.307607 0.874041 0.0671718
74 1 0.346305 0.923163 0.225676
133 1 0.444613 0.916166 0.0474779
92 1 0.399249 0.760041 0.0111047
97 1 0.372089 0.969828 0.392211
271 1 0.468277 0.860701 0.305493
186 1 0.324859 0.8236 0.381101
293 2 0.438509 0.864727 0.43392
278 1 0.47641 1.01428 0.267192
110 1 0.442729 0.904764 0.655926
203 1 0.317434 0.770381 0.631667
245 1 0.368155 0.867107 0.526329
260 1 0.439649 0.850444 0.886802
189 1 0.298237 0.776465 0.864345
32 1 0.441517 0.988735 0.825247
42 1 0.311376 0.942049 0.90436
334 2 0.437158 0.794508 0.774663
53 1 0.336709 0.886928 0.752505
197 1 0.563642 0.196275 0.139583
47 1 0.540168 0.0451224 0.0888151
228 1 0.697634 0.0667284 0.135242
332 2 0.690411 0.193116 0.205849
275 1 0.702816 0.231592 0.0571509
239 1 0.596955 0.0856264 0.252064
277 1 0.656677 0.0442529 0.376959
321 2 0.61062 0.167343 0.358527
38 1 0.696653 0.221208 0.43049
73 1 0.754408 0.110487 0.289331
8 1 0.506197 0.0977519 0.414415
176 1 0.542738 0.25555 0.43425
44 1 0.601574 0.22746 0.579695
85 1 0.607492 0.0718857 0.537814
258 1 0.69859 0.0348006 0.700774
358 2 0.691211 0.154551 0.656338
81 1 0.582276 0.192498 0.728927
177 1 0.540115 0.0280316 0.703151
218 1 0.639821 0.22627 0.896778
156 1 0.60627 0.0772598 0.854327
15 1 0.678955 0.0839414 0.984585
192 1 0.531656 0.151361 0.974594
58 1 0.733068 0.152665 0.797443
153 1 0.696372 0.347753 0.178913
57 1 0.529983 0.368437 0.203051
135 1 0.620683 0.453056 0.0973359
294 2 0.738084 0.398274 0.0479699
288 1 0.507358 0.314486 0.0564602
295 2 0.621976 0.349935 0.400158
214 1 0.641664 0.493989 0.259457
84 1 0.623222 0.270004 0.285358
1 1 0.727707 0.391107 0.32
142 1 0.642508 0.490177 0.426359
238 1 0.521616 0.432647 0.49346
209 1 0.669861 0.436412 0.694652
299 2 0.677832 0.322796 0.647449
35 1 0.657158 0.363973 0.521461
10 1 0.544584 0.352119 0.647346
101 1 0.645575 0.374184 0.964647
309 2 0.547075 0.282897 0.950036
18 1 0.70101 0.479542 0.846743
212 1 0.641696 0.322042 0.779354
56 1 0.550021 0.482827 0.783328
261 1 0.550623 0.502421 0.935884
70 1 0.598531 0.707877 0.153029
311 2 0.711661 0.653031 0.0519543
262 1 0.540735 0.562761 0.191496
31 1 0.700061 0.590381 0.15021
111 1 0.567335 0.604588 0.027683
168 1 0.745083 0.693057 0.44852
286 1 0.496944 0.629938 0.402927
140 1 0.621718 0.633926 0.31349
354 2 0.610104 0.59885 0.482391
252 1 0.613002 0.727729 0.542884
251 1 0.704515 0.582416 0.727769
297 2 0.611165 0.640811 0.662082
273 1 0.508182 0.615397 0.560294
227 1 0.657029 0.530647 0.580514
51 1 0.662896 0.738 0.710963
316 2 0.672529 0.697584 0.828376
26 1 0.609884 0.599012 0.858441
187 1 0.69399 0.535099 0.992474
124 1 0.662197 0.700155 0.954642
69 1 0.550719 0.919052 0.169602
219 1 0.683149 0.824448 0.185305
333 2 0.674423 0.783607 0.0660013
215 1 0.659306 0.924202 0.0507948
46 1 0.729134 0.959735 0.237983
223 1 0.54784 0.809411 0.0295179
71 1 0.539552 0.953723 0.427414
322 2 0.741871 0.901115 0.389664
162 1 0.561387 0.777511 0.39899
234 1 0.616193 0.910901 0.311094
59 1 0.696072 0.771393 0.334626
304 2 0.655488 0.827706 0.469368
353 2 0.569218 0.796395 0.253548
175 1 0.618272 0.899477 0.648865
312 2 0.53431 0.966007 0.578419
130 1 0.517554 0.849412 0.53045
76 1 0.687804 0.938633 0.515863
284 1 0.732514 0.807074 0.595625
235 1 0.521649 0.772348 0.666674
154 1 0.742662 0.887349 0.735243
136 1 0.548474 0.966945 0.954938
269 1 0.703667 0.960208 0.862612
11 1 0.637443 0.838749 0.913512
82 1 0.57588 0.91465 0.792394
141 1 0.549853 0.757936 0.821476
339 2 0.826256 0.0516393 0.190422
50 1 0.908531 0.141015 0.238477
129 1 0.881978 0.125277 0.0815575
337 2 0.941596 0.0190957 0.0368223
250 1 0.803763 0.241503 0.156441
330 2 0.94221 0.244595 0.120056
226 1 0.951686 0.00089591 0.16512
331 2 0.798104 0.155804 0.465933
171 1 0.904178 0.112211 0.396504
324 2 0.980187 0.0414126 0.289787
157 1 0.788533 0.00463619 0.430702
318 2 0.945298 0.229187 0.352576
145 1 0.890512 0.172362 0.565108
210 1 0.840531 0.078034 0.695445
241 1 0.972775 0.202101 0.685412
138 1 0.761315 0.247252 0.56239
2 1 0.750129 0.0902877 0.551944
276 1 0.964966 0.0187829 0.6038
347 2 0.880877 0.0600858 0.506916
29 1 0.880968 0.186605 0.802947
266 1 0.828066 0.0418053 0.837152
132 1 0.961753 0.0978326 0.904337
326 2 0.773798 0.0060329 0.952566
108 1 0.996741 0.0746957 0.75851
88 1 0.807933 0.152788 0.955102
170 1 0.857189 0.344769 0.0496281
256 1 0.960027 0.465147 0.147356
55 1 0.843502 0.37879 0.232801
199 1 0.959517 0.286992 0.237737
93 1 0.821457 0.490061 0.112631
279 1 0.853417 0.427274 0.405725
291 2 0.764342 0.332745 0.455455
116 1 0.970821 0.425424 0.303743
174 1 0.868644 0.265836 0.447466
285 1 0.798473 0.253559 0.312102
123 1 0.987881 0.358006 0.438625
149 1 0.78469 0.269059 0.716026
351 2 0.78609 0.513611 0.649008
19 1 0.815744 0.395484 0.607673
172 1 0.939506 0.469536 0.621675
161 1 0.974615 0.318364 0.584758
166 1 0.924827 0.343582 0.747946
72 1 0.901874 0.279083 0.903945
107 1 0.962789 0.430759 0.968882
319 2 0.923451 0.395812 0.859771
94 1 0.78044 0.328025 0.852519
89 1 0.811341 0.45717 0.947142
268 1 0.817898 0.452832 0.759731
30 1 0.971324 0.581 0.0169537
225 1 0.922316 0.72842 0.0165448
264 1 0.900923 0.628303 0.14155
127 1 0.764646 0.716455 0.137473
144 1 0.90166 0.598861 0.385631
83 1 0.813765 0.683324 0.283078
253 1 0.738644 0.553582 0.3509
17 1 0.997206 0.562099 0.261874
296 2 0.939354 0.508414 0.499382
60 1 0.857385 0.525017 0.258348
77 1 0.9201 0.645991 0.533374
281 1 0.865786 0.597128 0.705547
54 1 0.757578 0.651515 0.593686
211 1 0.79606 0.528785 0.522797
349 2 0.974852 0.585385 0.632536
216 1 0.824906 0.740012 0.709909
137 1 0.907756 0.536306 0.8595
24 1 0.778656 0.612434 0.855394
206 1 0.946586 0.67812 0.813516
314 2 0.826137 0.718525 0.908722
298 2 0.976149 0.557168 0.763939
5 1 0.830231 0.599433 1.00229
150 1 0.834822 0.846216 0.173167
300 2 0.9335 0.896222 0.227341
79 1 0.816058 0.969163 0.0772579
36 1 0.95539 0.873896 0.0844634
41 1 0.845405 0.833168 0.336279
65 1 0.808827 0.83479 0.470868
195 1 0.917112 0.931962 0.43861
160 1 0.869881 0.981378 0.295488
122 1 0.948013 0.762379 0.439949
114 1 0.962414 0.760639 0.255957
16 1 0.891549 0.833802 0.615087
9 1 0.824653 0.96029 0.593648
343 2 0.988024 0.861636 0.519908
80 1 0.896734 0.930024 0.731313
164 1 0.896565 0.96063 0.944659
191 1 0.904076 0.813595 0.896183
3 1 0.779915 0.804536 0.995743
327 2 0.832165 0.90065 0.826742
184 1 0.753511 0.790267 0.842339
303 2 0.92327 0.814274 0.770282
ITEM: TIMESTEP
100000
ITEM: NUMBER OF ATOMS
360
ITEM: BOX BOUNDS pp pp pp
0.0000000000000000e+00 6.6943295008216896e+00
0.0000000000000000e+00 6.6943295008216896e+00
0.0000000000000000e+00 6.6943295008216896e+00
ITEM: ATOMS id type xs ys zs
303 2 0.00596768 0.0647192 0.215677
245 1 0.0766103 0.151722 0.139766
108 1 0.102986 0.0752508 0.00866009
200 1 0.236443 0.119768 0.134119
308 2 0.116431 0.245357 0.221608
188 1 0.134988 0.109702 0.279406
233 1 0.237281 0.00431327 0.482095
145 1 0.029175 0.145761 0.438168
75 1 0.183052 0.236238 0.499425
247 1 0.142567 0.242304 0.342739
50 1 0.0945087 0.00167349 0.397415
7 1 0.125901 0.100806 0.538841
196 1 0.137863 0.0542306 0.682398
105 1 0.238147 0.174929 0.671707
64 1 0.0700902 0.215477 0.637301
305 2 0.0471731 0.242758 0.520414
146 1 0.00561339 0.0106905 0.74705
280 1 0.251074 0.079307 0.802708
342 2 0.163868 0.120599 0.889824
42 1 0.118043 0.166537 0.774693
139 1 0.00350091 0.141209 0.919775
20 1 0.240613 0.224196 0.853748
129 1 0.133294 0.216383 0.964139
23 1 0.0945757 0.00740455 0.864077
63 1 0.0421827 0.281851 0.0555901
221 1 0.105034 0.368097 0.160583
243 1 0.17256 0.36475 0.0259217
167 1 0.230367 0.264868 0.154598
357 2 0.242272 0.488402 0.0251192
98 1 0.228933 0.447351 0.140446
299 2 0.0664136 0.449536 0.34194
163 1 0.1215 0.396072 0.435759
360 2 0.241335 0.318931 0.392843
208 1 0.182089 0.3822 0.299835
120 1 0.106034 0.358118 0.598849
138 1 0.108233 0.439147 0.738218
286 1 0.23555 0.444934 0.540559
325 2 0.223619 0.434169 0.729215
231 1 0.0876048 0.492887 0.554545
237 1 0.163662 0.305244 0.736502
348 2 0.0400895 0.329914 0.716268
190 1 0.0258061 0.464234 0.874273
165 1 0.183641 0.388733 0.865921
12 1 0.0512033 0.301885 0.840064
335 2 0.061624 0.380311 0.984527
257 1 0.211193 0.591778 0.0815847
318 2 0.0669484 0.652374 0.196741
225 1 0.0753659 0.653324 0.0652526
115 1 0.0756366 0.518232 0.138937
96 1 0.159525 0.547466 0.428565
30 1 0.0120882 0.725381 0.288001
144 1 0.036699 0.610775 0.359703
347 2 0.0555064 0.713106 0.432647
236 1 0.184218 0.712173 0.442353
287 1 0.183479 0.680264 0.265937
109 1 0.149547 0.535739 0.275522
274 1 0.162775 0.667312 0.580376
293 2 0.071118 0.555256 0.661642
345 2 0.186081 0.651498 0.727848
102 1 0.203514 0.540624 0.659614
116 1 0.051023 0.669975 0.691821
126 1 0.0212713 0.620926 0.522133
61 1 0.19706 0.717504 0.957288
352 2 0.196039 0.607031 0.883102
205 1 0.143915 0.511253 0.945606
107 1 0.0613628 0.634795 0.915631
90 1 0.119765 0.578616 0.794921
289 2 0.189742 0.910663 0.1909
339 2 0.0109482 0.881285 0.185538
183 1 0.0944229 0.921095 0.0862845
158 1 0.135889 0.806549 0.170217
359 2 0.115479 0.800627 0.0470261
269 1 0.0814066 0.96265 0.246408
199 1 0.231423 0.975138 0.0523043
182 1 0.238706 0.820729 0.0671551
62 1 0.222963 0.974714 0.311346
34 1 0.211843 0.85215 0.456736
264 1 0.136797 0.819669 0.32464
125 1 0.062576 0.830575 0.488752
322 2 0.163495 0.783323 0.555402
33 1 0.0636068 0.975557 0.549223
240 1 0.0783454 0.822323 0.633859
276 1 0.208845 0.916506 0.607562
201 1 0.229774 0.765631 0.686529
244 1 0.150748 0.905657 0.745374
315 2 0.0122199 0.768324 0.909685
103 1 0.150474 0.868298 0.924855
66 1 0.00656808 0.850926 0.996366
113 1 0.0176337 0.877694 0.834501
282 1 0.115256 0.755872 0.808075
117 1 0.374016 0.0638664 0.0747916
328 2 0.34714 0.191833 0.0889838
152 1 0.370231 0.130717 0.215626
207 1 0.25311 0.136751 0.3932
270 1 0.366106 0.025303 0.324295
300 2 0.37635 0.146454 0.343118
68 1 0.381783 0.0486418 0.476829
8 1 0.489258 0.199695 0.27888
302 2 0.262938 0.0922631 0.268929
161 1 0.291918 0.249357 0.298075
128 1 0.476123 0.160575 0.44187
13 1 0.298934 0.0299101 0.628354
136 1 0.456096 0.0247769 0.673761
6 1 0.363639 0.182323 0.580843
334 2 0.487898 0.0991134 0.575906
355 2 0.257328 0.136767 0.535861
155 1 0.495663 0.179395 0.681664
224 1 0.255556 0.114065 0.972478
320 2 0.461559 0.0958115 0.78037
232 1 0.42244 0.135 0.926697
39 1 0.366633 0.189717 0.763608
37 1 0.405144 0.273004 0.169785
48 1 0.370155 0.407151 0.0722108
214 1 0.433923 0.42571 0.202436
307 2 0.322181 0.366758 0.220147
249 1 0.287254 0.262714 0.00838621
135 1 0.441283 0.255144 0.0302338
194 1 0.272518 0.44633 0.399991
353 2 0.489864 0.454444 0.306789
4 1 0.396663 0.361729 0.336921
59 1 0.318839 0.497117 0.259422
226 1 0.35137 0.257537 0.450213
86 1 0.273539 0.315105 0.597667
261 1 0.3367 0.4534 0.662248
213 1 0.429596 0.33055 0.674393
140 1 0.382561 0.415764 0.512779
177 1 0.490788 0.284492 0.546213
251 1 0.4845 0.48927 0.720391
290 2 0.387462 0.472189 0.828582
242 1 0.373713 0.292725 0.880745
311 2 0.43413 0.372741 0.958428
67 1 0.315467 0.415717 0.93847
180 1 0.325028 0.374041 0.7809
148 1 0.482011 0.360709 0.818942
5 1 0.342684 0.540528 0.115235
179 1 0.347367 0.698878 0.233598
3 1 0.324385 0.693189 0.0554518
49 1 0.446388 0.589137 0.23397
230 1 0.467072 0.678623 0.12702
295 2 0.463162 0.518368 0.119982
338 2 0.252479 0.72333 0.154388
341 2 0.260481 0.604466 0.199181
272 1 0.280098 0.608236 0.368277
314 2 0.398992 0.647454 0.343668
142 1 0.412236 0.664432 0.47449
301 2 0.305804 0.733469 0.347183
123 1 0.401879 0.520131 0.417516
169 1 0.437737 0.562798 0.593213
209 1 0.335564 0.631143 0.689865
99 1 0.27984 0.598152 0.515705
267 1 0.488747 0.661897 0.720369
336 2 0.361507 0.670234 0.91169
223 1 0.408714 0.589902 0.823754
260 1 0.470276 0.73186 0.956081
134 1 0.292224 0.571649 0.953676
204 1 0.270136 0.532714 0.802624
22 1 0.274168 0.681263 0.832321
150 1 0.441144 0.592073 0.987774
189 1 0.400714 0.74779 0.804711
159 1 0.428305 0.818147 0.183333
283 1 0.319216 0.973353 0.184035
344 2 0.42 0.780064 0.0575365
198 1 0.376646 0.908097 0.0625601
220 1 0.275464 0.826908 0.234646
104 1 0.47353 0.99424 0.175817
202 1 0.33263 0.863882 0.366132
147 1 0.478651 0.900051 0.414326
185 1 0.441123 0.771106 0.343557
329 2 0.394329 0.792852 0.460159
312 2 0.400397 0.918169 0.271718
110 1 0.489751 0.902094 0.581753
248 1 0.354022 0.898333 0.525825
53 1 0.363048 0.869154 0.691207
54 1 0.432787 0.758666 0.606533