ITEM: TIMESTEP
0
ITEM: NUMBER OF ATOMS
360
ITEM: BOX BOUNDS pp pp pp
0.0000000000000000e+00 6.6943295008216896e+00
0.0000000000000000e+00 6.6943295008216896e+00
0.0000000000000000e+00 6.6943295008216896e+00
ITEM: ATOMS id type xs ys zs
240 1 0.0128122 0.24743 0.130191
38 1 0.192977 0.0182263 0.152824
244 1 0.157275 0.194011 0.123574
257 1 0.0744224 0.0438939 0.047085
228 1 0.203396 0.0939874 0.00499034
172 1 0.18354 0.06738 0.424951
114 1 0.102479 0.0941568 0.280399
86 1 0.040857 0.237278 0.403371
252 1 0.221998 0.218907 0.379357
317 2 0.206678 0.160538 0.253007
68 1 0.115829 0.062665 0.706358
238 1 0.182833 0.195992 0.647011
33 1 0.0989346 0.134238 0.530036
303 2 0.0511234 0.176434 0.649029
129 1 0.227291 0.0523208 0.580541
291 2 0.206249 0.167019 0.502479
137 1 0.0910154 0.233619 0.765847
218 1 0.205039 0.22379 0.890555
149 1 0.102417 0.0953414 0.871359
232 1 0.240169 0.130734 0.777567
158 1 0.0830141 0.204704 0.986699
24 1 0.113153 0.365567 0.151264
304 2 0.0482781 0.322243 0.0375413
94 1 0.201837 0.479075 0.0770272
208 1 0.0532396 0.447901 0.0287782
347 2 0.0896765 0.499218 0.143959
237 1 0.181456 0.332046 0.0112524
313 2 0.212018 0.330671 0.218262
66 1 0.22155 0.459321 0.23854
230 1 0.117259 0.373829 0.371662
144 1 0.0507333 0.458964 0.2676
195 1 0.244025 0.420067 0.484418
336 2 0.030028 0.346788 0.486926
235 1 0.121895 0.254254 0.27349
274 1 0.147865 0.287908 0.498426
136 1 0.0909025 0.462189 0.52325
76 1 0.0716799 0.327831 0.62564
250 1 0.219661 0.350231 0.616977
132 1 0.129598 0.479283 0.679984
312 2 0.202922 0.491173 0.579892
345 2 0.168028 0.356808 0.742891
37 1 0.0598765 0.338304 0.90014
79 1 0.216072 0.379263 0.868092
215 1 0.0446443 0.478547 0.808994
300 2 0.0310687 0.345849 0.774933
119 1 0.140633 0.749327 0.163213
135 1 0.136128 0.58221 0.222809
314 2 0.0488976 0.728859 0.0831853
92 1 0.106944 0.602646 0.0553037
22 1 0.00937922 0.701306 0.224158
61 1 0.164024 0.706384 0.403326
306 2 0.182305 0.709115 0.27473
53 1 0.237995 0.584861 0.483404
155 1 0.117492 0.534036 0.382769
111 1 0.0906077 0.629194 0.524965
109 1 0.150532 0.716372 0.710851
331 2 0.115868 0.600876 0.662652
185 1 0.210049 0.729422 0.552319
212 1 0.243648 0.595073 0.651488
323 2 0.0183683 0.681479 0.633795
298 2 0.170134 0.627296 0.922894
65 1 0.0934671 0.716743 0.852268
25 1 0.16216 0.58658 0.794328
242 1 0.005575 0.60414 0.927281
41 1 0.148821 0.508297 0.927981
221 1 0.0157002 0.624446 0.757871
16 1 0.158083 0.74653 0.993819
351 2 0.0636121 0.855039 0.189254
97 1 0.126216 0.895913 0.0871162
141 1 0.0321297 0.965508 0.229334
63 1 0.246304 0.882055 0.185562
87 1 0.149009 0.858369 0.465329
265 1 0.0879376 0.805477 0.317186
106 1 0.174319 0.95647 0.31431
85 1 0.035019 0.990797 0.390955
276 1 0.115548 0.878034 0.676914
35 1 0.0884473 0.96829 0.550411
108 1 0.065772 0.777778 0.56944
120 1 0.242985 0.895831 0.577353
157 1 0.230413 0.97784 0.72601
239 1 0.0151059 0.782087 0.742209
338 2 0.179591 0.86922 0.95984
93 1 0.158471 0.857683 0.829863
188 1 0.0761118 0.939465 0.931173
187 1 0.0268621 0.808509 0.991399
356 2 0.125565 0.978986 0.813335
340 2 0.0349563 0.839159 0.854986
7 1 0.23508 0.987576 0.882012
200 1 0.00875178 0.944485 0.77287
9 1 0.298043 0.121152 0.159879
112 1 0.414889 0.220827 0.156413
343 2 0.338439 0.0991253 0.0346028
171 1 0.427075 0.0464813 0.110061
273 1 0.43821 0.182981 0.0013773
154 1 0.291668 0.221715 0.0412813
143 1 0.298778 0.246095 0.236699
31 1 0.293624 0.0929688 0.314822
318 2 0.401802 0.0350203 0.36801
96 1 0.346131 0.0926589 0.482071
46 1 0.376983 0.215927 0.381167
148 1 0.432371 0.0917105 0.255377
202 1 0.493488 0.117906 0.397079
168 1 0.343234 0.175373 0.639236
341 2 0.332466 0.0683236 0.700573
130 1 0.472306 0.0796831 0.695624
113 1 0.446567 0.216324 0.516348
210 1 0.499732 0.0483289 0.542201
184 1 0.398709 0.175487 0.787409
278 1 0.331011 0.12147 0.909535
30 1 0.496939 0.0932997 0.877863
233 1 0.38048 0.00356053 0.804738
80 1 0.309963 0.375359 0.136459
301 2 0.43026 0.47159 0.0635908
32 1 0.459546 0.338013 0.053748
282 1 0.475492 0.427623 0.175067
174 1 0.414414 0.376526 0.464027
69 1 0.286429 0.359663 0.337564
102 1 0.435451 0.330505 0.304324
62 1 0.381481 0.491474 0.291668
166 1 0.495028 0.465793 0.37665
75 1 0.369393 0.328596 0.630415
77 1 0.344173 0.471897 0.595011
27 1 0.286839 0.440599 0.726374
165 1 0.470084 0.444079 0.678958
287 1 0.274411 0.280134 0.748808
89 1 0.294989 0.257363 0.514717
17 1 0.489656 0.494493 0.540076
267 1 0.404802 0.363659 0.793522
98 1 0.319582 0.426491 0.980783
84 1 0.354185 0.280844 0.914209
183 1 0.473719 0.425808 0.919698
286 1 0.339958 0.519278 0.142186
220 1 0.474322 0.587349 0.130447
357 2 0.374228 0.645799 0.0646819
332 2 0.38998 0.604321 0.228263
190 1 0.362817 0.744951 0.220812
191 1 0.253382 0.640601 0.159155
225 1 0.374679 0.546965 0.452877
100 1 0.271634 0.614965 0.3166
125 1 0.446369 0.652891 0.349716
246 1 0.320385 0.70515 0.428549
354 2 0.271915 0.502644 0.369436
36 1 0.465849 0.726395 0.497671
39 1 0.357366 0.643197 0.564375
325 2 0.353588 0.548412 0.729264
227 1 0.34979 0.667605 0.744359
175 1 0.454203 0.591635 0.662533
48 1 0.495372 0.736247 0.662492
262 1 0.39205 0.72289 0.949259
224 1 0.478268 0.689302 0.824561
339 2 0.371303 0.631772 0.863121
207 1 0.290569 0.529747 0.849711
181 1 0.455076 0.531405 0.802183
101 1 0.410299 0.561122 0.973997
49 1 0.263782 0.606976 0.999429
214 1 0.258259 0.710412 0.859542
103 1 0.296867 0.767841 0.0748247
206 1 0.399986 0.88612 0.146392
348 2 0.382161 0.85175 0.0167267
82 1 0.272474 0.943635 0.0392766
310 2 0.31108 0.994966 0.176719
326 2 0.458346 0.967778 0.228856
116 1 0.450183 0.750676 0.0896592
266 1 0.337202 0.942141 0.292261
19 1 0.285741 0.939411 0.432108
322 2 0.281509 0.812483 0.48714
247 1 0.393737 0.837585 0.433084
248 1 0.253505 0.820225 0.329258
307 2 0.409713 0.973856 0.488855
124 1 0.49797 0.960428 0.393048
99 1 0.472739 0.844283 0.298339
269 1 0.48166 0.887337 0.54684
88 1 0.371265 0.970941 0.616316
280 1 0.423025 0.859319 0.717128
81 1 0.35503 0.802961 0.582892
245 1 0.28238 0.819577 0.712592
150 1 0.29677 0.838495 0.923687
311 2 0.302241 0.897969 0.803838
333 2 0.355298 0.776027 0.819834
118 1 0.445617 0.862372 0.887603
34 1 0.397811 0.992152 0.95898
251 1 0.553735 0.0343759 0.0129023
104 1 0.681005 0.0649347 0.116019
231 1 0.555945 0.146415 0.119568
90 1 0.689919 0.215337 0.0711335
51 1 0.687513 0.171146 0.218681
289 2 0.546463 0.243582 0.019177
284 1 0.578176 0.0737816 0.272949
15 1 0.532796 0.224785 0.271799
201 1 0.649688 0.159882 0.382303
342 2 0.593167 0.0468007 0.426752
95 1 0.728285 0.0103979 0.252931
299 2 0.563512 0.176546 0.489828
107 1 0.71641 0.185578 0.656614
140 1 0.571721 0.165203 0.619587
138 1 0.634113 0.0253159 0.678881
152 1 0.661504 0.0811519 0.533668
57 1 0.611376 0.145637 0.786757
295 2 0.737604 0.157371 0.858016
64 1 0.6012 0.164209 0.949308
1 1 0.634794 0.0189642 0.886138
6 1 0.738883 0.0894427 0.973716
169 1 0.587512 0.316733 0.137215
71 1 0.716131 0.36897 0.0691881
308 2 0.723985 0.295822 0.181769
163 1 0.563567 0.489766 0.0324649
147 1 0.652011 0.481432 0.169055
162 1 0.696913 0.347112 0.371891
156 1 0.53591 0.286271 0.417261
159 1 0.608342 0.420152 0.475084
12 1 0.584435 0.389712 0.280315
358 2 0.698367 0.368781 0.594376
263 1 0.528572 0.332457 0.579323
161 1 0.657415 0.316622 0.698326
189 1 0.666726 0.261039 0.508279
180 1 0.615797 0.467606 0.631468
160 1 0.508757 0.267673 0.718487
360 2 0.631547 0.463709 0.927132
167 1 0.589379 0.434226 0.807066
219 1 0.650048 0.28407 0.843161
281 1 0.601877 0.35192 0.97393
268 1 0.506205 0.263864 0.874501
83 1 0.710832 0.624546 0.228368
226 1 0.640136 0.633527 0.0926335
324 2 0.525127 0.62756 0.0179568
4 1 0.537024 0.701976 0.218631
3 1 0.713725 0.530811 0.0106078
334 2 0.696229 0.724089 0.158906
305 2 0.612375 0.639237 0.323429
78 1 0.563194 0.74779 0.385698
55 1 0.537987 0.548209 0.263676
182 1 0.556643 0.601481 0.443594
355 2 0.646155 0.682469 0.485308
236 1 0.730068 0.653918 0.376008
275 1 0.661063 0.503812 0.355138
28 1 0.723405 0.617947 0.647505
328 2 0.62188 0.709637 0.678106
128 1 0.576418 0.629875 0.588031
52 1 0.593041 0.596556 0.744078
204 1 0.698609 0.547971 0.510196
309 2 0.689473 0.503836 0.730202
277 1 0.568221 0.57974 0.900137
26 1 0.688653 0.682809 0.944641
5 1 0.716674 0.535785 0.850709
105 1 0.549773 0.739641 0.962345
203 1 0.633999 0.746355 0.804445
110 1 0.60656 0.780956 0.0965756
151 1 0.564012 0.961989 0.150327
205 1 0.681659 0.949997 0.0204953
272 1 0.702376 0.875197 0.164206
359 2 0.587618 0.850115 0.215788
72 1 0.512536 0.886591 0.0229605
320 2 0.542457 0.855441 0.445875
67 1 0.620898 0.918359 0.329154
283 1 0.693746 0.81902 0.433079
216 1 0.669783 0.772228 0.284785
50 1 0.729339 0.980989 0.419728
288 1 0.588902 0.863476 0.691515
44 1 0.616133 0.944852 0.516964
127 1 0.604553 0.786177 0.557054
179 1 0.744454 0.771916 0.675352
290 2 0.71941 0.83539 0.552487
352 2 0.514155 0.965514 0.64849
198 1 0.742889 0.923884 0.645855
42 1 0.693145 0.909791 0.786864
329 2 0.530406 0.824048 0.792419
176 1 0.625984 0.86329 0.909626
18 1 0.528782 0.966575 0.780196
350 2 0.526491 0.963391 0.911259
344 2 0.702005 0.808968 0.991439
253 1 0.996802 0.0948741 0.154116
133 1 0.84183 0.128745 0.193016
302 2 0.803851 0.164472 0.0677784
196 1 0.863355 0.0380352 0.0587644
211 1 0.934344 0.177753 0.0132632
13 1 0.815399 0.124041 0.349185
319 2 0.91737 0.044355 0.263347
11 1 0.957001 0.155094 0.305807
213 1 0.939343 0.105486 0.464392
335 2 0.753002 0.231179 0.402875
209 1 0.973218 0.225007 0.554528
194 1 0.830181 0.0150849 0.543097
58 1 0.861006 0.141986 0.662905
21 1 0.982866 0.0650233 0.606959
254 1 0.795991 0.16177 0.518331
316 2 0.754318 0.0602052 0.633684
164 1 0.854104 0.124686 0.876323
126 1 0.957791 0.0326153 0.922993
173 1 0.990711 0.205548 0.87842
117 1 0.983401 0.099777 0.76064
346 2 0.875214 0.0131364 0.822195
73 1 0.813184 0.230199 0.777759
45 1 0.755693 0.0573298 0.77771
54 1 0.856162 0.262438 0.128636
261 1 0.958205 0.388899 0.141075
293 2 0.835493 0.409337 0.0958846
139 1 0.756996 0.399317 0.241403
243 1 0.968162 0.406849 0.390291
192 1 0.816223 0.259437 0.280817
353 2 0.816681 0.382272 0.367725
14 1 0.769721 0.39215 0.487235
59 1 0.891639 0.467263 0.273258
74 1 0.876934 0.276117 0.426541
186 1 0.965064 0.306604 0.272225
199 1 0.813027 0.299283 0.60456
40 1 0.917465 0.409186 0.549471
255 1 0.933225 0.432572 0.698491
256 1 0.781232 0.451573 0.640904
121 1 0.945344 0.2727 0.707646
285 1 0.75292 0.398134 0.78506
153 1 0.906713 0.344511 0.835613
271 1 0.772828 0.410392 0.936254
337 2 0.967192 0.432745 0.919842
115 1 0.777267 0.260086 0.940458
222 1 0.924768 0.334047 0.993049
234 1 0.868871 0.497481 0.864958
258 1 0.98035 0.558603 0.151328
321 2 0.879794 0.650362 0.169547
122 1 0.776245 0.74269 0.0705276
131 1 0.930112 0.680471 0.0453357
70 1 0.806605 0.537573 0.14969
123 1 0.907082 0.5034 0.0159019
197 1 0.818016 0.741369 0.228764
315 2 0.855457 0.643843 0.440607
2 1 0.87117 0.625303 0.307422
177 1 0.964993 0.566193 0.437322
296 2 0.773607 0.52615 0.287908
349 2 0.998591 0.585562 0.301265
142 1 0.817421 0.512394 0.4105
56 1 0.991281 0.707738 0.387085
178 1 0.99829 0.552654 0.615765
193 1 0.865854 0.55556 0.551447
91 1 0.879745 0.723854 0.694115
146 1 0.762675 0.713755 0.516088
134 1 0.853912 0.563207 0.718971
229 1 0.928725 0.708469 0.530884
327 2 0.900628 0.614965 0.824306
23 1 0.779082 0.669729 0.813367
170 1 0.826373 0.634142 0.953739
47 1 0.937138 0.728892 0.868263
10 1 0.871014 0.943366 0.198668
8 1 0.812863 0.884724 0.0366944
43 1 0.924969 0.798804 0.124543
297 2 0.772762 0.976591 0.126507
249 1 0.970977 0.931075 0.0680433
20 1 0.935355 0.832571 0.285993
29 1 0.771877 0.873628 0.31199
270 1 0.878534 0.98219 0.377025
145 1 0.999924 0.858409 0.450726
60 1 0.842706 0.764944 0.388049
330 2 0.950134 0.969787 0.496869
241 1 0.967389 0.896464 0.608253
294 2 0.853571 0.844958 0.634028
217 1 0.868564 0.994986 0.695146
279 1 0.828687 0.867586 0.508788
223 1 0.771547 0.803577 0.890271
259 1 0.920638 0.88388 0.910914
260 1 0.854459 0.866945 0.772072
264 1 0.796849 0.965317 0.900656
292 2 0.881809 0.783568 0.985069
ITEM: TIMESTEP
1000000
ITEM: NUMBER OF ATOMS
360
ITEM: BOX BOUNDS pp pp pp
0.0000000000000000e+00 6.6943295008216896e+00
0.0000000000000000e+00 6.6943295008216896e+00
0.0000000000000000e+00 6.6943295008216896e+00
ITEM: ATOMS id type xs ys zs
244 1 0.0398183 0.0417283 0.0829719
19 1 0.118231 0.138965 0.183155
349 2 0.228807 0.211374 0.186297
171 1 0.192019 0.0109704 0.129908
257 1 0.129662 0.147985 0.0240029
329 2 0.159373 0.0594765 0.272875
274 1 0.0708405 0.132437 0.318512
143 1 0.186661 0.230323 0.32152
96 1 0.215733 0.103848 0.38891
313 2 0.157654 0.21743 0.448211
129 1 0.101645 0.00919544 0.394599
199 1 0.0517201 0.0304453 0.717578
137 1 0.126709 0.172115 0.681225
130 1 0.229932 0.148461 0.566246
278 1 0.206415 0.0316851 0.67995
89 1 0.184978 0.00315579 0.529425
113 1 0.0824492 0.126697 0.50431
181 1 0.0934653 0.24423 0.837403
58 1 0.155738 0.0996457 0.820763
82 1 0.249115 0.0264011 0.921604
343 2 0.124565 0.0359009 0.945208
228 1 0.0235945 0.112029 0.928483
75 1 0.244457 0.241718 0.777218
287 1 0.250563 0.186535 0.925408
123 1 0.0488348 0.429295 0.134244
125 1 0.187589 0.337519 0.214347
299 2 0.145007 0.369742 0.0692823
24 1 0.197489 0.49605 0.0903383
155 1 0.0676748 0.266065 0.119545
144 1 0.22916 0.260535 0.0650027
211 1 0.114439 0.482642 0.272093
66 1 0.161116 0.368678 0.377875
76 1 0.0362914 0.259 0.417822
62 1 0.0489681 0.296918 0.273226
2 1 0.00223559 0.415001 0.363176
340 2 0.0694287 0.3771 0.474015
238 1 0.185855 0.389537 0.523483
215 1 0.0321894 0.424596 0.596309
195 1 0.0891769 0.260989 0.561119
31 1 0.118906 0.333479 0.695795
318 2 0.0141353 0.246232 0.726265
61 1 0.0723239 0.470392 0.740531
154 1 0.144255 0.392589 0.869781
173 1 0.0333172 0.312482 0.969793
235 1 0.24356 0.385523 0.987527
312 2 0.170353 0.282644 0.950859
252 1 0.0760036 0.464385 0.99077
242 1 0.0440397 0.730713 0.220781
25 1 0.0566362 0.587901 0.152861
239 1 0.149709 0.712556 0.100494
94 1 0.213441 0.599928 0.211175
185 1 0.0617596 0.626725 0.325346
225 1 0.21446 0.555747 0.355466
265 1 0.188394 0.728973 0.286572
81 1 0.133039 0.722383 0.437354
40 1 0.00488366 0.640168 0.488882
53 1 0.105918 0.496209 0.438443
347 2 0.0767017 0.54348 0.560499
142 1 0.109629 0.629054 0.660738
178 1 0.198175 0.612437 0.529758
134 1 0.223174 0.716164 0.736231
317 2 0.00258836 0.661203 0.707546
109 1 0.179358 0.490045 0.632342
16 1 0.0792087 0.671505 0.816462
108 1 0.195677 0.56122 0.778648
47 1 0.103002 0.63164 0.971475
49 1 0.223185 0.703904 0.891184
207 1 0.241238 0.520954 0.917883
234 1 0.00966199 0.539049 0.87024
119 1 0.192223 0.846737 0.17587
72 1 0.156629 0.918921 0.0163582
248 1 0.0366532 0.885119 0.12343
43 1 0.0566158 0.98828 0.245272
59 1 0.00981258 0.747257 0.0356567
20 1 0.103628 0.857168 0.330575
253 1 0.230334 0.961222 0.302903
120 1 0.195926 0.852741 0.463397
323 2 0.087454 0.914943 0.486308
35 1 0.0728131 0.779643 0.681999
197 1 0.0992696 0.912062 0.62085
341 2 0.0554929 0.897104 0.743211
276 1 0.201901 0.74826 0.584263
246 1 0.202555 0.869188 0.729071
85 1 0.0548494 0.803253 0.524947
7 1 0.109151 0.949729 0.848037
241 1 0.112602 0.788756 0.929367
294 2 0.138648 0.786538 0.800329
213 1 0.00934559 0.808254 0.81935
68 1 0.242766 0.873654 0.890808
303 2 0.247349 0.969736 0.805547
260 1 -0.00833152 0.931953 0.959262
106 1 0.275607 0.103306 0.236264
9 1 0.480031 0.134814 0.0651548
114 1 0.316502 0.101043 0.058021
112 1 0.37415 0.220285 0.149895
172 1 0.331779 0.181409 0.357638
124 1 0.429834 0.0788359 0.418668
290 2 0.324111 0.0455885 0.346636
298 2 0.299993 0.0652798 0.48508
302 2 0.468847 0.195222 0.381958
6 1 0.434115 0.116394 0.260013
168 1 0.387207 0.170606 0.677867
44 1 0.338133 0.047338 0.598342
339 2 0.413856 0.0431705 0.705313
345 2 0.257835 0.153464 0.692146
151 1 0.488978 0.0766768 0.59038
210 1 0.389624 0.181716 0.511432
268 1 0.399652 0.0796539 0.936513
311 2 0.486828 0.181705 0.945192
150 1 0.31041 0.0768314 0.787956
282 1 0.422568 0.190624 0.830254
352 2 0.462975 0.0452123 0.836009
148 1 0.326734 0.378228 0.125904
116 1 0.474096 0.339365 0.112734
337 2 0.427302 0.428545 0.212187
327 2 0.305466 0.500284 0.0168893
220 1 0.486661 0.499808 0.0808539
12 1 0.41147 0.312965 0.415727
174 1 0.322219 0.309166 0.272719
17 1 0.433246 0.458067 0.336151
162 1 0.29989 0.423065 0.419132
156 1 0.268294 0.262599 0.467268
46 1 0.47504 0.293641 0.263952
27 1 0.298934 0.464302 0.262511
152 1 0.42311 0.302041 0.585875
128 1 0.331306 0.425932 0.572155
237 1 0.468121 0.429934 0.683167
84 1 0.38879 0.31136 0.737222
69 1 0.281648 0.279377 0.625871
293 2 0.252641 0.502466 0.514604
214 1 0.261256 0.404141 0.739312
212 1 0.471648 0.465782 0.507303
218 1 0.393824 0.405445 0.990761
267 1 0.330597 0.32957 0.877455
132 1 0.377619 0.467769 0.834036
175 1 0.500485 0.318052 0.890095
98 1 0.379431 0.24322 1.00372
100 1 0.312086 0.71499 0.168777
286 1 0.267141 0.628525 0.0374819
226 1 0.429812 0.651665 0.0826088
183 1 0.34243 0.540764 0.133516
190 1 0.435085 0.739037 0.255673
157 1 0.294459 0.674996 0.420405
22 1 0.452204 0.662864 0.41536
289 2 0.361411 0.551226 0.408232
102 1 0.359474 0.624443 0.296177
227 1 0.339622 0.533702 0.691863
221 1 0.363447 0.684559 0.668757
350 2 0.467524 0.540402 0.619168
39 1 0.355662 0.572879 0.540594
325 2 0.443429 0.673941 0.558695
300 2 0.258782 0.614719 0.646399
73 1 0.479234 0.573002 0.747285
65 1 0.361397 0.642689 0.818839
262 1 0.374249 0.717163 0.952788
224 1 0.39939 0.557394 0.955729
297 2 0.461504 0.72807 0.787827
206 1 0.306569 0.941502 0.041745
141 1 0.352472 0.867236 0.167091
63 1 0.441148 0.812701 0.0594354
307 2 0.313274 0.995122 0.171659
135 1 0.279374 0.792479 0.0344372
57 1 0.441027 0.99859 0.154468
283 1 0.448103 0.815772 0.385123
269 1 0.339143 0.941709 0.45115
266 1 0.388939 0.944205 0.295518
87 1 0.302335 0.812017 0.334165
322 2 0.467094 0.950236 0.386214
245 1 0.423814 0.831217 0.664086
354 2 0.291909 0.804849 0.664006
33 1 0.28084 0.904572 0.592174
117 1 0.338964 0.938357 0.725667
67 1 0.469168 0.902255 0.523929
233 1 0.371703 0.776169 0.532354
348 2 0.363587 0.847139 0.954811
188 1 0.383969 0.94162 0.870292
105 1 0.349089 0.793795 0.796931
280 1 0.481757 0.805289 0.894639
321 2 0.454965 0.879141 0.780316
34 1 0.467037 0.9552 1.00593
51 1 0.675536 0.0662277 0.206593
319 2 0.700865 0.194895 0.174892
205 1 0.63514 0.116146 0.0675921
324 2 0.541317 0.080623 0.181694
32 1 0.569265 0.204015 0.176418
332 2 0.547961 0.0519564 0.00488393
284 1 0.69281 -0.000895405 0.362883
202 1 0.573547 0.164324 0.330966
15 1 0.580855 0.0154492 0.456006
192 1 0.676655 0.12993 0.462267
110 1 0.540003 0.00897251 0.289745
11 1 0.739017 0.169937 0.311304
138 1 0.536642 0.213779 0.496997
140 1 0.636548 0.0506585 0.611044
184 1 0.531614 0.109211 0.747502
217 1 0.719043 0.184346 0.73864
107 1 0.667057 0.212383 0.598771
295 2 0.740439 0.0463793 0.696101
305 2 0.701099 0.00609675 0.500009
223 1 0.677665 0.0303053 0.804132
281 1 0.719759 0.127373 0.919523
118 1 0.571221 0.107005 0.895596
153 1 0.625248 0.249205 0.839247
45 1 0.576559 0.249567 1.00975
236 1 0.565023 0.422681 0.242876
64 1 0.645525 0.335751 0.123839
71 1 0.637699 0.492843 0.108378
55 1 0.749205 0.421039 0.214255
261 1 0.6826 0.435656 0.359397
80 1 0.546795 0.369171 0.394855
186 1 0.674577 0.282033 0.425624
231 1 0.647775 0.291968 0.273341
198 1 0.703778 0.386983 0.623334
263 1 0.567277 0.34895 0.55986
308 2 0.655272 0.300718 0.70643
160 1 0.537402 0.267837 0.685761
275 1 0.643068 0.47526 0.504358
250 1 0.589025 0.39795 0.763955
346 2 0.65907 0.433658 0.871767
115 1 0.693447 0.332004 0.936388
1 1 0.746992 0.344648 0.793082
167 1 0.725778 0.489095 0.748755
52 1 0.542397 0.495467 0.878028
271 1 0.579291 0.40692 0.993727
163 1 0.547967 0.726529 0.141559
139 1 0.591741 0.607023 0.0134019
357 2 0.646477 0.626987 0.152552
30 1 0.688246 0.723463 0.0697129
166 1 0.501429 0.568184 0.226105
147 1 0.678904 0.750124 0.229345
182 1 0.555017 0.527592 0.386238
247 1 0.570958 0.697961 0.314924
310 2 0.597101 0.645485 0.430182
78 1 0.721037 0.595205 0.386953
216 1 0.651336 0.557871 0.25891
194 1 0.68186 0.74965 0.422378
146 1 0.672775 0.63342 0.699435
344 2 0.724479 0.525768 0.612612
48 1 0.508141 0.703459 0.661773
88 1 0.691558 0.641296 0.536647
165 1 0.551333 0.599309 0.542275
180 1 0.601306 0.50497 0.641529
359 2 0.712085 0.63895 0.978109
328 2 0.605665 0.697672 0.787636
101 1 0.663368 0.605819 0.862609
292 2 0.606067 0.538262 0.769325
179 1 0.52004 0.650906 0.875992
240 1 0.709264 0.498086 0.976277
277 1 0.631214 0.738362 0.927745
309 2 0.509503 0.713793 1.00396
122 1 0.580142 0.850303 0.0127959
360 2 0.671062 0.847174 0.118703
4 1 0.681664 0.908331 0.228424
273 1 0.591089 0.967795 0.112588
8 1 0.518921 0.87616 0.214885
36 1 0.601066 0.86973 0.362959
320 2 0.721166 0.821228 0.324013
232 1 0.53469 0.756658 0.509394
288 1 0.664553 0.905903 0.692308
356 2 0.55192 0.849996 0.640603
104 1 0.6258 0.904063 0.5457
279 1 0.639008 0.762415 0.613497
42 1 0.513792 0.964448 0.696189
176 1 0.726366 0.765734 0.750432
191 1 0.552568 0.946226 0.861264
127 1 0.555747 0.814984 0.760366
23 1 0.687658 0.870535 0.850281
251 1 0.648388 0.986246 0.975846
26 1 0.750851 0.837211 0.986542
90 1 0.818367 0.116524 0.158527
38 1 0.891081 0.0315432 0.0439836
351 2 0.761167 0.0701474 0.020414
86 1 0.969333 0.118253 0.207896
219 1 0.762041 0.221803 0.048344
249 1 0.955379 0.183656 0.0727008
334 2 0.784848 -0.0054572 0.233284
326 2 0.796792 0.0971968 0.418197
60 1 0.861114 0.0636608 0.306325
230 1 0.916444 0.214258 0.317525
254 1 0.934213 0.13659 0.459415
342 2 0.977335 0.0424966 0.368091
13 1 0.808822 0.217509 0.463139
270 1 0.858983 -0.00617973 0.449229
18 1 0.788655 0.114295 0.57984
209 1 0.902065 0.0335592 0.668782
315 2 0.850577 0.16131 0.699619
256 1 0.960521 0.170005 0.614011
243 1 0.999939 -0.00558493 0.539581
164 1 0.825468 0.0842316 0.805796
133 1 0.863413 0.16821 0.936104
291 2 0.774426 0.230153 0.860933
358 2 0.964437 0.234889 0.881378
255 1 0.976133 0.14371 0.790086
306 2 0.907682 0.0542215 0.911021
74 1 0.871579 0.256138 0.786828
37 1 0.916627 0.331365 0.0804045
272 1 0.774147 0.397421 0.0693638
54 1 0.816014 0.276916 0.186788
335 2 0.950801 0.247838 0.193928
131 1 0.888107 0.475464 0.128007
41 1 0.91671 0.371836 0.244377
169 1 0.794413 0.323059 0.328204
296 2 0.903881 0.331462 0.373384
136 1 0.834777 0.469059 0.340032
161 1 0.785101 0.39127 0.489444
14 1 0.934933 0.486173 0.504144
301 2 0.817921 0.373677 0.704465
159 1 0.937828 0.335674 0.668113
330 2 0.959695 0.453463 0.695722
189 1 0.818338 0.261335 0.623433
121 1 0.929201 0.300123 0.514598
201 1 0.842618 0.46136 0.631691
316 2 0.797641 0.423593 0.891848
222 1 0.853374 0.317684 0.938241
5 1 0.884381 0.464049 0.794426
10 1 0.91933 0.447973 0.954649
79 1 0.988981 0.349211 0.810819
70 1 0.916303 0.651537 0.158358
83 1 0.847204 0.710283 0.0274193
314 2 0.779648 0.695971 0.169305
208 1 0.760078 0.583113 0.102187
93 1 0.956945 0.585508 0.0306212
333 2 0.832797 0.520249 0.02098
204 1 0.799646 0.594679 0.249534
304 2 0.937124 0.660885 0.28445
28 1 0.886324 0.608371 0.398911
92 1 0.816187 0.713191 0.491766
338 2 0.9975 0.54635 0.40387
95 1 0.826044 0.746581 0.311849
56 1 0.960907 0.524154 0.265057
145 1 0.985658 0.753196 0.387406
77 1 0.817233 0.641188 0.645308
158 1 0.966905 0.566945 0.630976
193 1 0.940023 0.727816 0.602025
331 2 0.895183 0.610973 0.545419
229 1 0.796146 0.545865 0.505848
149 1 0.8319 0.568535 0.906198
355 2 0.774456 0.610843 0.777081
170 1 0.944169 0.684853 0.903538
203 1 0.784721 0.712097 0.880856
285 1 0.907766 0.605856 0.778291
353 2 0.927237 0.780247 0.142237
97 1 0.888588 0.860933 0.0508756
187 1 0.803532 0.824533 0.168218
177 1 0.903575 0.969638 0.185507
103 1 0.748715 0.962606 0.0872719
336 2 0.877741 0.820194 0.407517
29 1 0.81975 0.909317 0.316026
91 1 0.971024 0.918975 0.390333
258 1 0.952889 0.844601 0.251246
99 1 0.757076 0.877682 0.456752
50 1 0.795737 0.95611 0.589903
111 1 0.909689 0.860335 0.524762
259 1 0.789833 0.802977 0.617478
21 1 0.947187 0.890971 0.666489
200 1 0.798789 0.938793 0.749459
3 1 0.87342 0.841088 0.870794
196 1 0.798182 0.987674 0.92486
264 1 0.887672 0.756335 0.740421
126 1 0.943775 0.977491 0.811848
ITEM: TIMESTEP
2000000
ITEM: NUMBER OF ATOMS
360
ITEM: BOX BOUNDS pp pp pp
0.0000000000000000e+00 6.6943295008216896e+00
0.0000000000000000e+00 6.6943295008216896e+00
0.0000000000000000e+00 6.6943295008216896e+00
ITEM: ATOMS id type xs ys zs
93 1 0.13437 0.0627782 0.141679
106 1 0.223084 0.182683 0.0985314
358 2 0.0807648 0.122179 0.0370732
62 1 0.00194777 0.142837 0.161983
19 1 0.14275 0.220263 0.226587
312 2 0.232656 0.103424 0.23797
337 2 0.105975 0.16044 0.406974
171 1 0.107085 0.0835202 0.300281
248 1 0.0849448 0.0332428 0.450372
174 1 0.227116 0.153957 0.364107
210 1 0.0762361 0.100428 0.608546
44 1 0.196505 0.217925 0.647548
112 1 0.125957 0.243923 0.511656
269 1 0.236956 0.0461792 0.680653
172 1 0.225367 0.119054 0.535799
96 1 0.00611601 0.24844 0.603378
7 1 0.209685 0.0920603 0.83517
228 1 0.0568922 0.0986565 0.90401
164 1 0.168873 0.219541 0.947352
199 1 0.0766831 0.168481 0.760187
235 1 0.206336 0.0579804 0.998345
148 1 0.187688 0.338891 0.0951128
123 1 0.0596779 0.416222 0.120699
76 1 0.0174198 0.298732 0.214612
94 1 0.186297 0.489238 0.0527614
125 1 0.166739 0.36958 0.245497
28 1 0.230294 0.499233 0.204081
287 1 0.0681599 0.255656 0.0697381
14 1 0.1 0.415786 0.443659
344 2 0.0590671 0.377412 0.316936
128 1 0.136196 0.282577 0.367375
195 1 0.00324992 0.304813 0.439904
17 1 0.242916 0.459884 0.34846
255 1 0.115166 0.346277 0.679894
238 1 0.0969781 0.484647 0.582264
53 1 0.206888 0.373428 0.556398
340 2 0.0622401 0.357756 0.556017
2 1 0.230972 0.462881 0.674885
303 2 0.240866 0.33961 0.689116
79 1 0.0592093 0.486859 0.732192
74 1 0.221214 0.432043 0.832258
244 1 0.208607 0.288053 0.821783
329 2 0.0990528 0.376184 0.797637
181 1 0.0286438 0.259379 0.913402
24 1 0.113293 0.381218 0.953267
214 1 0.0919625 0.584862 0.140083
59 1 0.0773365 0.721809 0.198304
47 1 0.0489657 0.684103 0.0105309
87 1 0.229052 0.659016 0.170837
242 1 0.207255 0.645833 0.0140992
293 2 0.145745 0.611007 0.270755
66 1 0.0125467 0.633403 0.327061
225 1 0.142934 0.574702 0.399925
81 1 0.179531 0.728633 0.329579
178 1 0.059085 0.723174 0.44801
134 1 0.0120944 0.585809 0.489726
211 1 0.0832126 0.494024 0.275925
313 2 0.0222776 0.511409 0.379444
156 1 0.247712 0.508464 0.49662
185 1 0.174428 0.659195 0.540981
327 2 0.155435 0.578353 0.644608
158 1 0.0291532 0.62825 0.653284
121 1 0.188027 0.705876 0.692748
207 1 0.145045 0.538409 0.912569
239 1 0.133613 0.697581 0.864843
149 1 0.0176113 0.607186 0.833701
252 1 0.0264573 0.50963 0.998396
286 1 0.192184 0.576755 0.769565
241 1 0.197249 0.817742 0.203417
257 1 0.201129 0.932565 0.0901154
119 1 0.0603061 0.922145 0.213435
136 1 0.0469341 0.82925 0.0932352
72 1 0.0603051 0.985292 0.0342173
354 2 0.159061 0.75265 0.0930731
43 1 0.203681 0.975112 0.241129
253 1 0.13005 0.892646 0.354793
197 1 0.0227457 0.869147 0.478201
9 1 0.233466 0.996434 0.40136
258 1 0.0100387 0.80713 0.313558
324 2 0.00323595 0.945962 0.34823
120 1 0.194916 0.808201 0.478667
89 1 0.125094 0.941723 0.573591
323 2 0.11832 0.842225 0.683755
246 1 0.0796922 0.772328 0.585163
276 1 0.244482 0.877977 0.670744
16 1 0.0409955 0.762569 0.739932
213 1 0.171717 0.831667 0.806705
65 1 0.174511 0.809528 0.971586
331 2 0.049735 0.881356 0.807576
341 2 0.229918 0.949732 0.79034
126 1 0.115148 0.937489 0.896662
3 1 0.0229619 0.824716 0.923473
35 1 0.110524 0.993752 0.746372
144 1 0.327657 0.174813 0.22608
273 1 0.466668 0.0296841 0.0111362
206 1 0.300987 0.0333475 0.127396
68 1 0.345433 0.127759 0.00727414
98 1 0.442125 0.143253 0.138033
348 2 0.467271 0.161449 0.0118824
138 1 0.349406 0.0982297 0.439722
107 1 0.436998 0.200083 0.35266
12 1 0.333596 0.0335337 0.288494
140 1 0.290079 0.249995 0.489319
186 1 0.497709 0.056919 0.352188
263 1 0.484594 0.129145 0.501957
18 1 0.465223 0.212901 0.628803
151 1 0.410228 0.0531575 0.613211
345 2 0.358103 0.157494 0.560877
290 2 0.455223 0.104365 0.730996
168 1 0.332913 0.170855 0.708542
117 1 0.345619 0.0412421 0.78574
282 1 0.447199 0.109526 0.885457
84 1 0.461279 0.222251 0.787119
75 1 0.318914 0.188861 0.86051
311 2 0.321434 0.0523916 0.90747
299 2 0.288104 0.233688 0.97949
102 1 0.359186 0.402644 0.229167
218 1 0.410639 0.434824 0.0397717
304 2 0.286664 0.430622 0.101413
150 1 0.346726 0.289035 0.0931387
116 1 0.457411 0.277682 0.229403
349 2 0.267758 0.308239 0.193707
166 1 0.446797 0.391163 0.364401
143 1 0.301325 0.298498 0.33184
212 1 0.352752 0.399136 0.482932
157 1 0.470733 0.294264 0.48705
152 1 0.335896 0.312441 0.620048
350 2 0.486928 0.383792 0.595241
61 1 0.387994 0.464756 0.630891
153 1 0.50094 0.366862 0.724051
227 1 0.441814 0.442851 0.87062
267 1 0.272939 0.365227 0.963342
154 1 0.411763 0.291637 0.936053
82 1 0.352387 0.346932 0.769059
224 1 0.386407 0.679638 0.187914
226 1 0.331149 0.552743 0.0941416
283 1 0.441845 0.52938 0.218552
262 1 0.382639 0.699213 0.00586921
236 1 0.498583 0.597149 0.0895938
124 1 0.305623 0.693181 0.43073
25 1 0.296721 0.605441 0.301675
297 2 0.419504 0.62819 0.307956
73 1 0.48463 0.636377 0.437654
221 1 0.382073 0.520231 0.38566
31 1 0.291395 0.59569 0.644048
109 1 0.444209 0.597144 0.681741
39 1 0.378638 0.574331 0.525404
110 1 0.449969 0.72205 0.57244
232 1 0.365612 0.72596 0.716243
67 1 0.295394 0.744574 0.57655
42 1 0.447943 0.600223 0.854318
108 1 0.293633 0.660758 0.866812
27 1 0.313742 0.517368 0.943801
339 2 0.42451 0.562723 0.978646
49 1 0.341354 0.52317 0.772748
325 2 0.486729 0.504174 0.762696
265 1 0.338898 0.893447 0.194183
135 1 0.290971 0.778332 0.097911
309 2 0.417982 0.801624 0.0869482
8 1 0.360314 0.919949 0.0444362
190 1 0.454884 1.00566 0.193453
100 1 0.474103 0.841641 0.196879
202 1 0.439002 0.917441 0.335997
15 1 0.378652 0.827401 0.462312
342 2 0.352505 0.967965 0.412458
141 1 0.279599 0.864917 0.341001
217 1 0.468539 0.946256 0.494947
266 1 0.424221 0.75986 0.320062
298 2 0.300457 0.757507 0.257131
33 1 0.39241 0.860766 0.614721
343 2 0.355308 0.961483 0.682006
278 1 0.286964 0.963926 0.549051
245 1 0.481931 0.982023 0.740862