ITEM: TIMESTEP
0
ITEM: NUMBER OF ATOMS
360
ITEM: BOX BOUNDS pp pp pp
0.0000000000000000e+00 6.6943295008216896e+00
0.0000000000000000e+00 6.6943295008216896e+00
0.0000000000000000e+00 6.6943295008216896e+00
ITEM: ATOMS id type xs ys zs
309 2 0.152858 0.160326 0.0427251
149 1 0.186758 0.231364 0.143069
188 1 0.069308 0.139439 0.133403
328 2 0.162615 0.16475 0.242254
214 1 0.135191 0.0149346 0.0842639
4 1 0.134772 0.152392 0.373122
70 1 0.0134957 0.139516 0.270812
307 2 0.24111 0.0957881 0.445448
115 1 0.246541 0.231605 0.303644
200 1 0.13679 0.0417078 0.256428
217 1 0.165128 0.00220538 0.404856
46 1 0.0418829 0.00186742 0.498188
264 1 0.0979519 0.17772 0.522735
213 1 0.179214 0.21383 0.69262
146 1 0.0797957 0.0666096 0.643514
229 1 0.244492 0.0710848 0.701688
6 1 0.227071 0.127504 0.569422
332 2 0.0734718 0.145129 0.742352
108 1 0.00454267 0.160571 0.868763
292 2 0.119902 0.0347296 0.808855
190 1 0.114672 0.219761 0.945521
32 1 0.12671 0.0663027 0.935221
276 1 0.179585 0.157445 0.823733
118 1 0.244116 0.000219246 0.845078
348 2 0.0439639 0.461471 0.071691
249 1 0.123165 0.345044 0.0674124
48 1 0.046946 0.395364 0.191965
162 1 0.20184 0.358523 0.220794
311 2 0.0745802 0.272603 0.152263
317 2 0.243369 0.405763 0.109434
286 1 0.217875 0.494776 0.306304
114 1 0.083054 0.266416 0.27154
170 1 0.0901762 0.402751 0.335844
161 1 0.200583 0.368785 0.456256
163 1 0.0461507 0.317691 0.473825
334 2 0.133609 0.287382 0.381984
75 1 0.170439 0.37265 0.64939
94 1 0.0797531 0.446182 0.562747
299 2 0.186317 0.268775 0.55511
81 1 0.0546828 0.285033 0.622377
331 2 0.162656 0.358593 0.942016
105 1 0.193375 0.308494 0.833366
167 1 0.0203373 0.338794 0.919665
241 1 0.104766 0.419003 0.794409
42 1 0.0521773 0.277434 0.775822
67 1 0.11718 0.466602 0.963193
257 1 0.134562 0.520212 0.130545
335 2 0.144587 0.674519 0.131115
273 1 0.0212657 0.650074 0.144758
225 1 0.121625 0.609313 0.013919
144 1 0.131052 0.514102 0.437346
231 1 0.046341 0.671738 0.406282
272 1 0.196094 0.647716 0.412506
84 1 0.0186008 0.541423 0.320007
208 1 0.12191 0.632539 0.256069
341 2 0.248471 0.533919 0.456084
90 1 0.0615871 0.676263 0.733473
172 1 0.113268 0.536573 0.694177
21 1 0.210576 0.665051 0.671793
138 1 0.201409 0.55415 0.567132
14 1 0.0980631 0.686423 0.549098
244 1 0.0590383 0.554858 0.86036
297 2 0.204852 0.739049 0.913429
237 1 0.207048 0.618987 0.845665
52 1 0.0807304 0.733118 0.883095
129 1 0.0256676 0.942564 0.013587
184 1 0.0652174 0.763633 0.0401652
338 2 0.141796 0.867342 0.097304
62 1 0.0796875 0.781459 0.195379
228 1 0.0559748 0.936945 0.173993
103 1 0.230138 0.775183 0.156993
102 1 0.17429 0.798318 0.447174
147 1 0.144169 0.859377 0.300721
325 2 0.073184 0.906856 0.402241
293 2 0.237079 0.901842 0.43199
202 1 0.0160934 0.82022 0.48363
339 2 0.126883 0.754464 0.356987
269 1 0.181287 0.97384 0.559267
173 1 0.14414 0.823389 0.592257
240 1 0.126824 0.93344 0.699817
350 2 0.0536051 0.76067 0.644926
113 1 0.0996836 0.931036 0.878802
260 1 0.190643 0.847427 0.981514
100 1 0.189459 0.771189 0.78332
301 2 0.204985 0.871166 0.864895
319 2 0.0114737 0.846126 0.920727
137 1 0.0384897 0.82151 0.758297
76 1 0.00875231 0.99649 0.775402
265 1 0.432511 0.162658 0.157883
242 1 0.388558 0.0701447 0.0388443
360 2 0.331879 0.169009 0.235283
15 1 0.268376 0.151176 0.0207891
221 1 0.272285 0.0744554 0.157013
270 1 0.443924 0.0999832 0.303376
226 1 0.391408 0.225597 0.357983
354 2 0.385908 0.111347 0.424223
199 1 0.287578 0.0899674 0.324666
117 1 0.253307 0.236667 0.450158
110 1 0.482827 0.0657668 0.497862
274 1 0.32597 0.00273638 0.444249
201 1 0.360567 0.02244 0.593694
128 1 0.442896 0.134902 0.668234
50 1 0.389894 0.201113 0.522643
20 1 0.350002 0.0923564 0.897892
135 1 0.467634 0.196402 0.881738
207 1 0.384036 0.0111895 0.764543
290 2 0.274322 0.205845 0.913223
44 1 0.340959 0.196982 0.775868
153 1 0.442961 0.360975 0.193052
218 1 0.394009 0.270117 0.0377458
127 1 0.383186 0.439241 0.0108724
142 1 0.333848 0.454956 0.186238
223 1 0.32174 0.277619 0.172543
353 2 0.472914 0.489231 0.095747
262 1 0.261634 0.323337 0.00992806
140 1 0.33485 0.364751 0.310733
120 1 0.351148 0.354865 0.464085
130 1 0.373565 0.491058 0.404068
40 1 0.472169 0.374154 0.353122
291 2 0.437766 0.472155 0.28568
82 1 0.452145 0.42961 0.563991
96 1 0.314195 0.463028 0.57567
196 1 0.311319 0.351405 0.745377
109 1 0.298977 0.28314 0.596728
86 1 0.450193 0.290451 0.655535
345 2 0.389021 0.44487 0.678574
314 2 0.458784 0.314579 0.504989
209 1 0.394772 0.46429 0.811238
39 1 0.348938 0.321808 0.876031
355 2 0.438799 0.297785 0.794077
180 1 0.255416 0.449788 0.895961
259 1 0.431415 0.60639 0.219659
49 1 0.398732 0.591303 0.0775605
312 2 0.324314 0.713356 0.22579
61 1 0.259415 0.609849 0.155176
23 1 0.412677 0.731739 0.129453
165 1 0.270344 0.682583 0.0193944
179 1 0.254822 0.526687 0.0261949
123 1 0.308151 0.612861 0.299883
211 1 0.431988 0.703812 0.345067
216 1 0.336689 0.63671 0.445734
97 1 0.453857 0.569236 0.495353
357 2 0.442929 0.670425 0.656579
150 1 0.429316 0.729465 0.515269
267 1 0.342079 0.602446 0.604651
57 1 0.258435 0.733783 0.545994
191 1 0.460252 0.548318 0.695131
205 1 0.259332 0.502214 0.735455
204 1 0.350922 0.582782 0.921578
5 1 0.485601 0.538197 0.950026
198 1 0.451129 0.702374 0.961167
261 1 0.346424 0.632615 0.76279
320 2 0.457908 0.587782 0.827546
134 1 0.316326 0.738242 0.880259
289 2 0.438658 0.849356 0.112989
182 1 0.357356 0.847268 0.223234
280 1 0.342637 0.825864 0.030436
37 1 0.404574 0.983096 0.180346
224 1 0.268035 0.922347 0.127364
11 1 0.476333 0.91954 0.0062212
34 1 0.262247 0.942138 0.287706
233 1 0.408423 0.943915 0.340617
99 1 0.341607 0.826899 0.41609
194 1 0.250232 0.753768 0.312837
125 1 0.448379 0.914927 0.521207
322 2 0.397443 0.909818 0.651608
178 1 0.270416 0.903995 0.724508
189 1 0.284227 0.874596 0.55899
282 1 0.345397 0.77455 0.657192
220 1 0.324336 0.885554 0.887723
336 2 0.439508 0.822838 0.944331
13 1 0.478601 0.949043 0.856794
33 1 0.415758 0.839548 0.777851
342 2 0.372794 0.969254 0.953323
53 1 0.255614 0.98567 0.987138
176 1 0.549291 0.203482 0.0357528
192 1 0.687601 0.0203278 0.139878
58 1 0.656003 0.0833272 0.000233589
79 1 0.591363 0.120441 0.218755
333 2 0.660262 0.146221 0.118281
74 1 0.536555 0.0259507 0.0934363
112 1 0.737192 0.240556 0.0812434
88 1 0.748873 0.158535 0.204516
101 1 0.531898 0.241246 0.433072
234 1 0.574876 0.0550473 0.360959
10 1 0.657571 0.226838 0.316976
65 1 0.712153 0.0370272 0.293779
92 1 0.673192 0.130357 0.451468
288 1 0.534468 0.195014 0.573222
210 1 0.685026 0.220046 0.624829
155 1 0.608728 0.0804408 0.627458
136 1 0.551553 0.241095 0.746547
255 1 0.735897 0.015945 0.576522
25 1 0.5328 0.0704955 0.786191
254 1 0.615417 0.19024 0.873159
313 2 0.614758 0.0619629 0.886047
263 1 0.748801 0.0458787 0.885605
133 1 0.513313 0.0680615 0.957098
29 1 0.706824 0.110495 0.758132
253 1 0.678867 0.403587 0.125657
59 1 0.541 0.364387 0.0778516
2 1 0.606565 0.264883 0.157022
279 1 0.747738 0.326158 0.23202
177 1 0.568154 0.449558 0.440381
143 1 0.691875 0.382589 0.388168
1 1 0.607061 0.386708 0.27295
300 2 0.656198 0.267982 0.448941
16 1 0.735392 0.483446 0.263867
232 1 0.501188 0.250734 0.274843
281 1 0.711003 0.451774 0.524461
148 1 0.642072 0.397152 0.676405
185 1 0.6044 0.331644 0.543697
327 2 0.74032 0.498996 0.652269
251 1 0.508016 0.390637 0.738744
166 1 0.6526 0.3195 0.979766
55 1 0.631597 0.357614 0.834716
295 2 0.557858 0.434151 0.958033
26 1 0.732953 0.468821 0.780658
22 1 0.512774 0.329276 0.919179
187 1 0.683368 0.479417 0.928607
60 1 0.719777 0.590617 0.128262
31 1 0.560206 0.645285 0.141685
159 1 0.669704 0.743199 0.166326
203 1 0.668053 0.696576 0.0164804
197 1 0.596615 0.515782 0.0569556
346 2 0.552287 0.646025 0.0102121
246 1 0.542898 0.509956 0.205094
41 1 0.637341 0.61562 0.266256
351 2 0.52779 0.693863 0.25262
168 1 0.677404 0.569086 0.411901
71 1 0.507885 0.553079 0.346298
235 1 0.565523 0.66807 0.420969
230 1 0.665353 0.59665 0.717451
169 1 0.550481 0.647634 0.578151
238 1 0.705709 0.596607 0.559786
258 1 0.661755 0.74832 0.623264
87 1 0.575259 0.51546 0.626176
298 2 0.597734 0.570084 0.504756
266 1 0.512528 0.695164 0.75771
227 1 0.670457 0.736886 0.785039
222 1 0.614448 0.628799 0.900092
344 2 0.734196 0.714202 0.895376
121 1 0.582198 0.504967 0.817265
85 1 0.606447 0.898647 0.10041
152 1 0.720875 0.943594 0.0174372
278 1 0.555055 0.964163 0.231044
252 1 0.506508 0.828846 0.221981
3 1 0.534527 0.778382 0.0669474
283 1 0.694605 0.881082 0.231819
329 2 0.668623 0.824923 0.0220758
164 1 0.640245 0.920737 0.373178
321 2 0.517092 0.954316 0.433235
27 1 0.506449 0.830804 0.374962
160 1 0.627267 0.765617 0.30958
54 1 0.636825 0.903321 0.645395
275 1 0.727756 0.850096 0.517317
175 1 0.580232 0.80496 0.505865
8 1 0.603299 0.973966 0.524322
247 1 0.504208 0.972013 0.661214
219 1 0.505797 0.815318 0.645861
69 1 0.736866 0.85549 0.872027
95 1 0.605037 0.942853 0.92919
35 1 0.677445 0.967211 0.776372
68 1 0.575594 0.85643 0.783533
186 1 0.601629 0.80004 0.916021
245 1 0.902845 0.15947 0.151621
7 1 0.932257 0.0186598 0.18878
72 1 0.826655 0.0832655 0.0466264
296 2 0.81339 0.0611609 0.188228
63 1 0.995366 0.244892 0.0464367
171 1 0.980678 0.0862955 0.0133482
358 2 0.905069 0.0350173 0.43278
93 1 0.870373 0.0998597 0.330137
145 1 0.995614 0.136831 0.420153
326 2 0.886134 0.217909 0.267323
73 1 0.832956 0.130284 0.480675
302 2 0.753229 0.14426 0.356933
9 1 0.907611 0.249313 0.486017
285 1 0.759244 0.00471758 0.435314
236 1 0.995606 0.00187856 0.329159
64 1 0.950036 0.13937 0.568677
277 1 0.823531 0.114266 0.653134
119 1 0.951424 0.145593 0.728224
308 2 0.963727 0.0274013 0.645494
304 2 0.833703 0.218668 0.589727
306 2 0.839221 0.153522 0.789854
47 1 0.758899 0.188404 0.928236
43 1 0.89433 0.0522156 0.850086
349 2 0.883395 0.184071 0.918282
330 2 0.998736 0.00439786 0.896436
98 1 0.945068 0.410113 0.0370088
239 1 0.948822 0.295542 0.199169
132 1 0.829912 0.418736 0.157559
310 2 0.847261 0.280195 0.117367
318 2 0.777875 0.362832 0.0476045
106 1 0.954968 0.281562 0.350202
174 1 0.837023 0.416116 0.424478
347 2 0.972343 0.392386 0.403355
340 2 0.853226 0.34828 0.316796
126 1 0.92831 0.431305 0.296978
104 1 0.806433 0.257427 0.37545
77 1 0.800376 0.386075 0.636012
212 1 0.939452 0.395235 0.538009
181 1 0.908704 0.290339 0.666843
56 1 0.768563 0.305717 0.517442
243 1 0.997868 0.432523 0.688496
38 1 0.775714 0.369022 0.882548
12 1 0.93253 0.449318 0.813023
359 2 0.894364 0.381558 0.92151
78 1 0.903431 0.289589 0.81881
356 2 0.82715 0.383302 0.764004
256 1 0.816117 0.494604 0.999266
305 2 0.963278 0.498333 0.928841
268 1 0.760885 0.269492 0.760052
139 1 0.85813 0.281764 0.985301
19 1 0.868746 0.695919 0.133954
250 1 0.963556 0.507103 0.171167
141 1 0.845318 0.577282 0.238072
151 1 0.958277 0.564272 0.0257416
294 2 0.856066 0.564779 0.113007
80 1 0.967314 0.504224 0.455008
158 1 0.88523 0.736813 0.392348
111 1 0.834842 0.570162 0.391728
83 1 0.761345 0.682926 0.317717
287 1 0.95833 0.675827 0.27272
206 1 0.768906 0.699851 0.472152
89 1 0.858598 0.533988 0.708184
24 1 0.93008 0.720078 0.663345
284 1 0.794803 0.658926 0.658245
18 1 0.849724 0.526527 0.549597
116 1 0.940648 0.667857 0.509442
91 1 0.988731 0.570127 0.603479
316 2 0.992703 0.562404 0.748794
315 2 0.939225 0.666001 0.950439
45 1 0.75562 0.608051 0.841125
124 1 0.912956 0.597697 0.84214
271 1 0.821226 0.653414 0.985933
131 1 0.829675 0.747549 0.799143
343 2 0.956723 0.715424 0.830511
352 2 0.827859 0.51098 0.873264
154 1 0.934799 0.848503 0.080086
156 1 0.812769 0.932592 0.148881
36 1 0.781201 0.803988 0.0788786
323 2 0.919571 0.973441 0.0702309
324 2 0.936405 0.886765 0.212031
17 1 0.849069 0.798252 0.245896
30 1 0.889584 0.903273 0.430671
66 1 0.825198 0.948314 0.297353
248 1 0.993699 0.816747 0.309331
122 1 0.762058 0.844082 0.377872
215 1 0.874676 0.814675 0.553545
51 1 0.768021 0.855561 0.697535
337 2 0.902205 0.843567 0.700398
193 1 0.862729 0.981344 0.716452
28 1 0.878644 0.981249 0.563158
157 1 0.993673 0.896824 0.636544
107 1 0.900066 0.781059 0.948621
303 2 0.808177 0.95596 0.829705
183 1 0.917207 0.869136 0.824447
195 1 0.875742 0.935672 0.965008
ITEM: TIMESTEP
50000
ITEM: NUMBER OF ATOMS
360
ITEM: BOX BOUNDS pp pp pp
0.0000000000000000e+00 6.6943295008216896e+00
0.0000000000000000e+00 6.6943295008216896e+00
0.0000000000000000e+00 6.6943295008216896e+00
ITEM: ATOMS id type xs ys zs
142 1 0.23382 0.149982 0.082303
4 1 0.11856 0.0278279 0.0829785
328 2 0.174683 0.124787 0.197434
188 1 0.0580833 0.162534 0.0881639
239 1 0.0522136 0.0840152 0.218489
98 1 0.112483 0.234922 0.222837
200 1 0.196539 0.00300355 0.221938
322 2 0.204962 0.189747 0.495369
64 1 0.0815599 0.0710805 0.381029
106 1 0.203205 0.150692 0.320011
221 1 0.224044 0.00144783 0.366391
70 1 0.117902 0.241203 0.393731
229 1 0.125551 0.135849 0.688378
146 1 0.117157 0.100691 0.533184
167 1 0.020804 0.254354 0.747089
278 1 0.252957 0.0240858 0.963416
63 1 0.130073 0.15108 0.858706
78 1 0.0359576 0.0842217 0.966482
262 1 0.21872 0.232831 0.942186
48 1 0.0732438 0.245823 0.955131
276 1 0.225977 0.0521787 0.786411
20 1 0.0214934 0.0459702 0.746391
309 2 0.149304 0.13674 0.985857
225 1 0.174717 0.448238 0.114063
19 1 0.0623828 0.38181 0.210919
151 1 0.047246 0.373705 0.045333
126 1 0.186875 0.294987 0.0825775
317 2 0.0502004 0.480871 0.148823
301 2 0.164869 0.317665 0.489027
163 1 0.0946752 0.454035 0.408227
250 1 0.180517 0.389985 0.297423
348 2 0.0766379 0.337863 0.338302
40 1 0.192473 0.273489 0.705469
94 1 0.154312 0.426086 0.554885
356 2 0.0082475 0.424973 0.573848
44 1 0.0808443 0.412334 0.681646
101 1 0.231363 0.419903 0.719306
109 1 0.0988224 0.257123 0.567266
294 2 0.187934 0.450652 0.854357
332 2 0.137798 0.291762 0.846347
67 1 0.0507878 0.378056 0.831275
124 1 0.156889 0.380898 0.955961
315 2 0.053485 0.460696 0.920134
324 2 0.13131 0.693885 0.194147
131 1 0.144739 0.553622 0.0153834
162 1 0.0563322 0.642021 0.114393
184 1 0.220935 0.684229 0.104902
319 2 0.171379 0.570593 0.140048
132 1 -0.00084771 0.519982 0.00988685
231 1 0.0164037 0.692564 0.251213
138 1 0.0790058 0.604409 0.3676
286 1 0.126586 0.521065 0.255998
140 1 0.211227 0.689314 0.285869
97 1 0.222371 0.555578 0.388232
12 1 0.173277 0.541464 0.660911
130 1 0.160507 0.697748 0.579981
14 1 0.0174296 0.666662 0.515398
292 2 0.226511 0.655587 0.704264
275 1 0.104519 0.668281 0.728315
345 2 0.239899 0.528536 0.520997
170 1 0.00960795 0.558655 0.639847
81 1 0.11848 0.564849 0.524649
90 1 0.114824 0.671246 0.913827
75 1 0.0904137 0.524645 0.807245
320 2 0.0151548 0.597536 0.90789
21 1 0.23555 0.573469 0.802517
180 1 0.239941 0.729201 0.825967
290 2 0.169858 0.894953 0.140828
195 1 0.0345953 0.925541 0.163081
224 1 0.165112 0.908884 0.00951504
330 2 0.0294507 0.78739 0.167127
107 1 0.116477 0.788287 0.0815779
297 2 0.0498527 0.962311 -0.00342068
71 1 0.0552509 0.766068 0.383952
199 1 0.211476 0.832974 0.37594
7 1 0.094147 0.941175 0.307601
240 1 0.128421 0.941178 0.456879
216 1 0.127732 0.802417 0.253149
325 2 0.0420397 0.783185 0.711085
173 1 0.0946252 0.81712 0.533932
341 2 0.156963 0.893893 0.604921
118 1 0.141502 0.98802 0.676233
272 1 0.252571 0.841747 0.525938
108 1 0.0167695 0.897576 0.654123
237 1 0.169553 0.817106 0.711552
282 1 0.231879 0.984617 0.553963
91 1 0.232349 0.761168 0.970539
32 1 0.0748853 0.814866 0.931769
100 1 0.221252 0.885463 0.841119
15 1 0.12042 0.981485 0.873512
343 2 0.121026 0.754387 0.81615
244 1 0.0635001 0.870204 0.7983
182 1 0.307517 0.103461 0.206678
135 1 0.374056 0.0923641 0.0189535
289 2 0.396245 0.0453499 0.130477
176 1 0.363906 0.231742 0.0678933
291 2 0.391617 0.190611 0.198433
74 1 0.494158 0.155402 0.120114
311 2 0.317322 0.0896818 0.332509
115 1 0.385076 0.200822 0.327349
201 1 0.457198 0.226702 0.472745
189 1 0.441025 0.0554292 0.296813
269 1 0.310917 0.116475 0.461004
150 1 0.446903 0.0519949 0.447905
6 1 0.40719 0.101066 0.7312
178 1 0.276478 0.111209 0.643572
92 1 0.472523 0.138037 0.589358
247 1 0.395699 0.00717448 0.586871
50 1 0.376687 0.235545 0.659184
220 1 0.463101 0.122127 0.889015
355 2 0.322071 0.131391 0.914485
207 1 0.276851 0.192286 0.805458
342 2 0.470289 0.199092 0.993691
22 1 0.377522 0.238201 0.917579
223 1 0.450798 0.294113 0.196557
259 1 0.489262 0.323899 0.0237994
257 1 0.334498 0.371877 0.130258
5 1 0.446009 0.456224 0.0768201
312 2 0.406455 0.489563 0.196673
127 1 0.266578 0.268495 0.235837
185 1 0.493578 0.336595 0.351612
1 1 0.244887 0.416363 0.431477
161 1 0.343443 0.368673 0.318569
279 1 0.416311 0.362646 0.48802
117 1 0.278407 0.268356 0.420267
168 1 0.4448 0.503273 0.356318
334 2 0.450119 0.466999 0.58855
82 1 0.49586 0.313416 0.61773
226 1 0.321032 0.437199 0.583215
114 1 0.259179 0.279526 0.570698
288 1 0.41722 0.369236 0.761404
299 2 0.310579 0.479624 0.813509
196 1 0.426174 0.402058 0.910689
333 2 0.29106 0.337988 0.969501
39 1 0.291434 0.347622 0.842003
209 1 0.286213 0.477248 0.938516
218 1 0.310194 0.550051 0.116086
228 1 0.360617 0.690993 0.183172
103 1 0.47967 0.591211 0.202736
52 1 0.374289 0.657767 0.0474418
351 2 0.472769 0.573701 0.0826656
57 1 0.268552 0.701041 0.4551
194 1 0.371359 0.666596 0.341089
61 1 0.305725 0.514518 0.266046
96 1 0.347872 0.556244 0.46559
267 1 0.472964 0.636294 0.475541
353 2 0.458014 0.697995 0.257323
172 1 0.370658 0.509454 0.705085
357 2 0.398661 0.734237 0.55777
205 1 0.469316 0.608889 0.629524
212 1 0.312029 0.61189 0.60432
159 1 0.411755 0.552065 0.862784
346 2 0.392814 0.539246 0.981166
49 1 0.410342 0.706852 0.912523
179 1 0.27111 0.628489 0.938039
204 1 0.364488 0.664042 0.761592
23 1 0.319138 0.82131 0.07581
280 1 0.419779 0.90701 0.150529
360 2 0.426704 0.771425 0.112258
53 1 0.264669 0.828267 0.205639
149 1 0.284943 0.976546 0.0917611
192 1 0.4131 0.931916 0.00769424
99 1 0.388771 0.783626 0.441117
34 1 0.344592 0.937071 0.441801
274 1 0.425749 0.808445 0.28285
37 1 0.325148 0.940506 0.282048
338 2 0.308827 0.775747 0.329895
238 1 0.495099 0.908387 0.382002
307 2 0.455922 0.930701 0.259844
261 1 0.282107 0.926574 0.683471
293 2 0.479371 0.94135 0.506136
110 1 0.388452 0.861364 0.571921
144 1 0.29425 0.75569 0.661263
219 1 0.416276 0.911112 0.744552
169 1 0.458047 0.764911 0.665402
331 2 0.272204 0.892117 0.966565
198 1 0.367184 0.850482 0.879521
134 1 0.364696 1.00597 0.861997
266 1 0.493359 0.791116 0.819547
300 2 0.31116 0.837308 0.763952
112 1 0.656299 0.0966955 0.112555
310 2 0.741108 0.220081 0.137981
254 1 0.5179 0.0301275 0.0324426
283 1 0.728079 0.00354454 0.216848
265 1 0.544087 0.03241 0.193287
47 1 0.758873 0.187898 0.00357106
242 1 0.697234 0.157842 0.247593
236 1 0.579371 0.103247 0.479725
234 1 0.600236 0.0409204 0.34976
10 1 0.650218 0.215681 0.392843
326 2 0.526322 0.147277 0.379344
232 1 0.539975 0.184001 0.26806
157 1 0.703414 0.0201472 0.538567
256 1 0.688624 0.206611 0.755013
313 2 0.588339 0.210817 0.553157
25 1 0.642279 0.130586 0.633435
321 2 0.690672 0.0780299 0.735282
54 1 0.54621 0.0207795 0.734762
302 2 0.546383 0.0441973 0.598923
155 1 0.724761 0.180975 0.525393
56 1 0.526641 0.200951 0.725463
33 1 0.600616 0.11717 0.844228
2 1 0.585475 0.152196 0.986329
13 1 0.684574 0.0444824 0.956914
16 1 0.718152 0.387722 0.105556
253 1 0.621007 0.257827 0.0813985
347 2 0.585522 0.369066 0.128652
123 1 0.516947 0.434161 0.223532
177 1 0.661789 0.463404 0.227955
181 1 0.581238 0.319003 0.4921
148 1 0.605356 0.456109 0.371613
9 1 0.721066 0.370736 0.368862
298 2 0.725588 0.481747 0.401885
304 2 0.726738 0.310281 0.477477
153 1 0.623826 0.315018 0.251425
8 1 0.651083 0.295482 0.635537
251 1 0.675037 0.442791 0.678813
314 2 0.597786 0.409904 0.583377
77 1 0.523416 0.470407 0.690872
210 1 0.543371 0.483052 0.506671
164 1 0.691983 0.427215 0.504491
191 1 0.554319 0.461162 0.846756
128 1 0.70164 0.463281 0.828103
59 1 0.666547 0.262659 0.897865
222 1 0.612834 0.395047 0.982128
120 1 0.518262 0.279303 0.884086
86 1 0.595265 0.342373 0.763051
41 1 0.585932 0.509281 0.0808082
252 1 0.622106 0.637169 0.190483
235 1 0.670769 0.64422 0.0395875
31 1 0.520637 0.683285 0.095837
17 1 0.712167 0.579567 0.312047
230 1 0.689117 0.6955 0.422702
352 2 0.625473 0.587715 0.434223
211 1 0.567446 0.60643 0.328194
215 1 0.52072 0.740391 0.3865
175 1 0.648716 0.719176 0.571919
258 1 0.693491 0.670966 0.739074
121 1 0.613616 0.586641 0.636508
80 1 0.733369 0.584954 0.54849
187 1 0.657371 0.598088 0.863963
186 1 0.554768 0.69578 0.937449
344 2 0.607144 0.720431 0.822945
340 2 0.619647 0.532922 0.759322
60 1 0.525828 0.558794 0.961519
87 1 0.531727 0.636557 0.765271
11 1 0.738015 0.725506 0.902415
45 1 0.714343 0.512928 0.98368
233 1 0.546641 0.810564 0.183826
58 1 0.629244 0.940595 0.100206
85 1 0.668168 0.796748 0.0241857
171 1 0.72822 0.856669 0.169656
354 2 0.657903 0.750992 0.148022
165 1 0.519156 0.835965 0.0321275
65 1 0.606248 0.926065 0.478303
323 2 0.63019 0.826439 0.415272
270 1 0.616334 0.884677 0.284982
358 2 0.736252 0.821208 0.357353
125 1 0.72543 0.942156 0.38724
93 1 0.661675 0.741682 0.288672
68 1 0.611065 0.798668 0.705112
193 1 0.532086 0.915378 0.636234
285 1 0.693807 0.943556 0.66243
27 1 0.523948 0.817657 0.519872
337 2 0.638626 0.847967 0.590215
66 1 0.743864 0.823942 0.504383
51 1 0.671152 0.975199 0.831184
133 1 0.525032 0.959459 0.884294
3 1 0.626851 0.828573 0.881755
306 2 0.604035 0.927582 0.984295
336 2 0.554011 0.898531 0.785178
227 1 0.746975 0.835894 0.78686
79 1 0.815948 0.117455 0.122648
296 2 0.952293 0.13986 0.155903
72 1 0.90359 0.0405359 0.210822
129 1 0.94695 0.0238773 0.0705099
245 1 0.910695 0.166074 0.00151913
73 1 0.927729 0.0669635 0.362569
145 1 0.7953 0.239782 0.380301
141 1 0.993307 0.202425 0.303359
88 1 0.746818 0.0926422 0.37
143 1 0.843491 0.166993 0.257967
213 1 0.988788 0.173254 0.4746
277 1 0.795767 0.0880172 0.668328
329 2 0.898711 0.0728397 0.733127
190 1 0.963646 0.134892 0.630424
42 1 0.864016 0.216914 0.715935
28 1 0.857634 0.0963496 0.506749
104 1 0.992227 0.00420713 0.547983
105 1 0.870546 0.243905 0.552065
308 2 0.766138 0.217217 0.646105
214 1 0.942045 0.131947 0.846796
263 1 0.831882 0.0523097 0.954663
136 1 0.774238 0.108645 0.827546
119 1 0.847272 0.247417 0.891292
273 1 0.913685 0.416972 0.158507
249 1 0.843518 0.287946 0.0768759
38 1 0.787088 0.312813 0.223352
359 2 0.969228 0.26884 0.037994
156 1 0.970579 0.266484 0.164064
246 1 0.856241 0.477717 0.00265812
35 1 0.850406 0.382822 0.454128
84 1 0.924073 0.348735 0.307652
305 2 0.93141 0.252339 0.39656
281 1 0.820375 0.460472 0.300951
264 1 0.998387 0.342798 0.4594
255 1 0.787523 0.357055 0.613876
29 1 0.864254 0.475132 0.571697
18 1 0.859357 0.470229 0.73182
243 1 0.952979 0.347589 0.644046
139 1 0.940178 0.355047 0.948102
55 1 0.76508 0.340745 0.780458
271 1 0.942433 0.480425 0.865167
327 2 0.820654 0.435483 0.873837
166 1 0.765407 0.370008 0.959642
241 1 0.911166 0.348962 0.800202
349 2 0.982325 0.256777 0.868507
350 2 0.986823 0.463947 0.74502
284 1 0.838096 0.630825 0.0215377
203 1 0.760693 0.541198 0.137491
147 1 0.92426 0.560254 0.131106
160 1 0.915773 0.715132 0.136755
83 1 0.765404 0.695241 0.143026
111 1 0.930815 0.679081 0.378311
174 1 0.835963 0.566667 0.429762
208 1 0.973019 0.515616 0.295119
339 2 0.804443 0.690577 0.374531
158 1 0.849533 0.623825 0.260337
287 1 0.979032 0.503896 0.472857
316 2 0.911998 0.592673 0.537714
202 1 0.85474 0.700553 0.512308
206 1 0.957164 0.697737 0.660512
26 1 0.825785 0.620955 0.657299
116 1 0.945806 0.600757 0.767135
89 1 0.98463 0.70428 0.996529
183 1 0.831956 0.703697 0.785624
197 1 0.818113 0.561315 0.871877
268 1 0.994869 0.725682 0.823558
295 2 0.754193 0.568369 0.760669
154 1 0.889843 0.89307 0.165322
152 1 0.82441 0.803085 0.050312
113 1 0.97898 0.864526 0.0469756
43 1 0.793237 0.968006 0.0720284
248 1 0.82054 0.77673 0.262569
335 2 0.973394 0.958877 0.283266
95 1 0.850183 0.947481 0.319365
62 1 0.967916 0.831176 0.277855
137 1 0.859407 0.812739 0.409832
217 1 0.978223 0.91154 0.410641
30 1 0.813636 0.782872 0.637879
76 1 0.88704 0.966127 0.651128
102 1 0.943268 0.833595 0.545729
69 1 0.902408 0.839141 0.740971
46 1 0.840958 0.948476 0.513669
303 2 0.87272 0.936811 0.98317
36 1 0.888771 0.826992 0.906162
318 2 0.955288 0.942581 0.769458
260 1 0.962776 0.95922 0.900769
24 1 0.747864 0.901021 0.940917
122 1 0.841859 0.96744 0.80826
ITEM: TIMESTEP
100000
ITEM: NUMBER OF ATOMS
360
ITEM: BOX BOUNDS pp pp pp
0.0000000000000000e+00 6.6943295008216896e+00
0.0000000000000000e+00 6.6943295008216896e+00
0.0000000000000000e+00 6.6943295008216896e+00
ITEM: ATOMS id type xs ys zs
225 1 0.0446887 0.184487 0.0700462
124 1 0.185255 0.167597 0.011756
163 1 0.137304 0.173594 0.183262
317 2 0.130005 0.0853716 0.0917853
127 1 0.175756 0.0292718 0.222859
151 1 0.0493472 0.061129 0.32222
117 1 0.186882 0.129517 0.360304
19 1 0.00473788 0.205031 0.359813
98 1 0.215524 0.0271462 0.484475
141 1 0.0478251 0.0363092 0.484918
291 2 0.113742 0.225249 0.295837
106 1 0.135874 0.103482 0.600693
193 1 0.228238 0.17552 0.500996
70 1 0.0537962 0.185427 0.508425
219 1 0.134708 0.0196617 0.735021
100 1 0.201098 0.103833 0.861271
15 1 0.115294 0.00506895 0.97707
261 1 0.0287844 0.104651 0.884474
139 1 0.11271 0.161938 0.751278
312 2 0.129687 0.282498 0.0275886
50 1 0.191567 0.31764 0.148174
132 1 0.0479554 0.388218 0.125382
281 1 0.00793456 0.258028 0.202841
298 2 0.227633 0.39479 0.246415
131 1 0.170342 0.420631 0.0013773
257 1 0.173492 0.493738 0.153641
1 1 0.106326 0.305033 0.437355
250 1 0.208782 0.416365 0.393848
82 1 0.221499 0.281857 0.318125
35 1 0.0998065 0.378249 0.277274
328 2 0.0505223 0.36958 0.647133
67 1 0.185065 0.404508 0.668431
94 1 0.111753 0.414647 0.53731
101 1 0.0388124 0.478604 0.712905
178 1 0.145473 0.262902 0.613473
359 2 0.192421 0.263798 0.719178
179 1 0.106793 0.455953 0.853132
21 1 0.24956 0.397812 0.831519
241 1 0.105605 0.333192 0.770018
75 1 0.00855365 0.457874 0.985319
276 1 0.11457 0.253972 0.901929
90 1 0.0341904 0.539273 0.148022
103 1 0.17681 0.665765 0.0968685
330 2 0.170422 0.604309 0.223584
71 1 0.0583777 0.722641 0.208476
96 1 0.214864 0.737269 0.235638
97 1 0.047883 0.525582 0.307348
102 1 0.134768 0.666009 0.336114
57 1 0.138633 0.54171 0.439955
226 1 0.201289 0.743479 0.459625
338 2 0.100969 0.663323 0.467896
130 1 0.240762 0.538489 0.301011
69 1 0.130416 0.748555 0.74551
287 1 0.043369 0.588622 0.56527
180 1 0.189615 0.594651 0.568753
345 2 0.123478 0.511064 0.623581
292 2 0.250287 0.653151 0.668144
44 1 0.15731 0.577234 0.720284
173 1 0.0989593 0.743913 0.576558
12 1 0.0166273 0.6582 0.703551
216 1 0.19579 0.683689 0.937095
275 1 0.0669508 0.649599 0.862144
324 2 0.0635744 0.68564 0.983582
209 1 0.113832 0.568152 0.991744
262 1 0.236113 0.544063 0.861162
4 1 0.198871 0.931938 0.10092
297 2 0.186064 0.809764 0.130684
195 1 0.0774094 0.800348 0.0692691
283 1 0.0558761 0.97294 0.124908
154 1 0.0984998 0.870436 0.220096
307 2 0.011453 0.963581 0.252756
91 1 0.217942 0.824981 0.00419168
7 1 0.238019 0.890196 0.25298
62 1 0.0612783 0.782752 0.3996
200 1 0.142823 0.962057 0.370856
335 2 0.189939 0.815013 0.3549
110 1 0.0472948 0.942468 0.636321
325 2 0.14584 0.846699 0.673309
237 1 0.208974 0.955446 0.625146
221 1 0.146918 0.883936 0.505147
244 1 0.249992 0.848545 0.731332
296 2 0.0443418 0.895453 0.978499
20 1 0.208454 0.936195 0.855536
299 2 0.239408 0.803439 0.858078
260 1 0.106781 0.817102 0.907716
349 2 0.067375 0.992302 0.843177
63 1 0.0653786 0.890994 0.781545
182 1 0.425746 0.0372621 0.0597359
135 1 0.388473 0.210394 0.0776136
142 1 0.269254 0.0866977 0.106848
150 1 0.41461 0.106675 0.226496
333 2 0.447992 0.227774 0.199479
37 1 0.278735 0.165335 0.238561
247 1 0.410956 0.103909 0.409415
290 2 0.496523 0.031394 0.29358
311 2 0.311431 0.166248 0.403985
274 1 0.303673 0.0194965 0.321438
341 2 0.344478 0.00346368 0.457383
326 2 0.478402 0.206866 0.412678
161 1 0.388866 0.236989 0.31481
269 1 0.334597 0.055477 0.576444
33 1 0.429314 0.193862 0.547922
192 1 0.443749 0.0952791 0.687375
86 1 0.497483 0.238855 0.689479
355 2 0.384337 0.231641 0.747137
190 1 0.263103 0.125552 0.702325
54 1 0.475754 0.034501 0.516088
107 1 0.270258 0.0228294 0.960169
134 1 0.473009 0.171545 0.827011
224 1 0.357434 0.0561109 0.812827
278 1 0.336534 0.151962 0.933182
53 1 0.463196 0.0430122 0.91561
6 1 0.260338 0.250422 0.827194
346 2 0.259132 0.401405 0.0894865
60 1 0.456137 0.483035 0.0993313
22 1 0.47388 0.328994 0.118949
61 1 0.322113 0.458125 0.174117
115 1 0.335652 0.310722 0.191708
204 1 0.367387 0.398645 0.0031948
92 1 0.333886 0.380672 0.331201
282 1 0.343137 0.277498 0.452047
148 1 0.361617 0.465435 0.460667
185 1 0.471197 0.359311 0.388812
5 1 0.442375 0.442176 0.256891
114 1 0.410694 0.366462 0.580883
332 2 0.384376 0.452251 0.66963
207 1 0.370783 0.354594 0.738866
40 1 0.259957 0.352304 0.533905
256 1 0.30981 0.254451 0.628111
176 1 0.270352 0.284502 0.98205
288 1 0.381687 0.474016 0.846553
220 1 0.406099 0.294277 0.899123
140 1 0.271025 0.525964 0.0242322
194 1 0.414272 0.711113 0.201789
184 1 0.335716 0.683281 0.0439934
351 2 0.410547 0.56539 0.186561
81 1 0.304017 0.611373 0.181418
218 1 0.493541 0.657064 0.0805491
168 1 0.40538 0.560935 0.350467
222 1 0.482211 0.726763 0.346742
217 1 0.288534 0.58315 0.442974
99 1 0.444024 0.63122 0.464611
252 1 0.312877 0.725968 0.355882
334 2 0.327934 0.627254 0.555294
205 1 0.451934 0.54171 0.578861
144 1 0.382117 0.67707 0.655996
39 1 0.323968 0.572097 0.74425
77 1 0.483403 0.526733 0.737947
212 1 0.298136 0.511655 0.597908
196 1 0.419496 0.56604 0.977266
295 2 0.442801 0.682643 0.94955
319 2 0.309076 0.639407 0.911259
30 1 0.420476 0.647289 0.833757
49 1 0.27702 0.700685 0.788384
72 1 0.309032 0.816153 0.142693
228 1 0.440793 0.808325 0.0379605
239 1 0.337784 0.974621 0.171332
32 1 0.339505 0.908388 0.0287489
280 1 0.480176 0.955334 0.192997
211 1 0.397102 0.847886 0.288692
337 2 0.421225 0.838613 0.417778
146 1 0.283395 0.892483 0.390959
27 1 0.441265 0.959916 0.390768
293 2 0.477586 0.85726 0.675032
285 1 0.394332 0.949214 0.694747
34 1 0.321333 0.90505 0.533073
306 2 0.354838 0.826338 0.614293
266 1 0.46055 0.891191 0.547818
240 1 0.257225 0.752418 0.598418
272 1 0.374653 0.765899 0.499121
300 2 0.255525 0.988538 0.745992
87 1 0.407086 0.788596 0.760144
52 1 0.346397 0.769907 0.919872
198 1 0.360301 0.920991 0.881893