ITEM: TIMESTEP
0
ITEM: NUMBER OF ATOMS
360
ITEM: BOX BOUNDS pp pp pp
0.0000000000000000e+00 6.6943295008216896e+00
0.0000000000000000e+00 6.6943295008216896e+00
0.0000000000000000e+00 6.6943295008216896e+00
ITEM: ATOMS id type xs ys zs
242 1 0.0731993 0.0981186 0.0313148
141 1 0.164348 0.224569 0.0326653
17 1 0.096291 0.105503 0.196901
113 1 0.24413 0.114179 0.140815
206 1 0.129726 0.21182 0.319051
24 1 0.168984 0.060434 0.348143
355 2 0.216154 0.166572 0.42282
173 1 0.0248486 0.102096 0.346717
330 2 0.0462193 0.219985 0.418054
135 1 0.113912 0.129959 0.497882
95 1 0.138648 0.24878 0.62161
29 1 0.0998883 0.0911052 0.639339
317 2 0.234127 0.176306 0.711151
195 1 0.206675 0.010318 0.553732
357 2 0.0188637 0.0595397 0.534802
90 1 0.0166192 0.0544241 0.889468
172 1 0.219374 0.0669689 0.764841
56 1 0.167642 0.149154 0.904025
230 1 0.111107 0.186318 0.765596
331 2 0.225169 0.234776 0.82997
254 1 0.0114642 0.205826 0.896965
164 1 0.105676 0.378932 0.0904244
291 2 0.15409 0.362835 0.211559
280 1 0.043436 0.415738 0.241154
77 1 0.0569832 0.250876 0.186908
248 1 0.222598 0.27031 0.17715
106 1 0.235874 0.372866 0.00353692
245 1 0.0719541 0.376536 0.386352
232 1 0.21923 0.341193 0.325772
121 1 0.162061 0.274262 0.460173
68 1 0.161121 0.495489 0.306337
294 2 0.11109 0.475047 0.454226
107 1 0.224455 0.426809 0.447122
97 1 0.119977 0.392833 0.560969
313 2 0.218091 0.415128 0.660987
360 2 0.24188 0.339772 0.556438
64 1 0.130969 0.367292 0.738948
86 1 0.141682 0.303603 0.893285
251 1 0.157509 0.477796 0.872043
148 1 0.0175535 0.408628 0.95675
265 1 0.0269971 0.451971 0.801563
315 2 0.0248595 0.322519 0.845786
334 2 0.124505 0.457608 0.990729
286 1 0.113242 0.659009 0.0878775
160 1 0.187565 0.518884 0.090363
136 1 0.0116829 0.526758 0.0579805
213 1 0.0401586 0.585777 0.228772
33 1 0.0256153 0.741553 0.211821
72 1 0.190649 0.724011 0.188538
221 1 0.0811163 0.698177 0.437533
233 1 0.216031 0.583754 0.448535
264 1 0.160553 0.653779 0.31228
202 1 0.0288224 0.554102 0.388123
49 1 0.0819201 0.572653 0.534568
125 1 0.0521263 0.673819 0.681477
311 2 0.177166 0.612048 0.688874
240 1 0.191075 0.689687 0.578027
9 1 0.226769 0.517355 0.589979
323 2 0.0143123 0.676793 0.557842
166 1 0.0972037 0.524145 0.691192
249 1 0.249433 0.51023 0.744506
274 1 0.208747 0.588804 0.956935
82 1 0.148079 0.625725 0.806809
38 1 0.121262 0.709921 0.95132
171 1 0.0119535 0.6043 0.923646
349 2 0.0292968 0.580835 0.782046
348 2 0.0888916 0.778429 0.0524388
157 1 0.110668 0.848698 0.150733
190 1 0.163377 0.98286 0.088231
207 1 0.00156763 0.867196 0.0608607
59 1 0.222029 0.971113 0.231876
223 1 0.049995 0.970897 0.26188
94 1 0.21532 0.930689 0.424013
198 1 0.149239 0.849319 0.306438
177 1 0.0607027 0.960397 0.471637
299 2 0.12187 0.831755 0.436448
36 1 0.233483 0.763167 0.438798
339 2 0.0783737 0.750327 0.330364
116 1 0.158624 0.777746 0.703417
307 2 0.154156 0.896182 0.554742
2 1 0.0497116 0.806564 0.578667
210 1 0.0233134 0.83863 0.729478
247 1 0.203517 0.933925 0.682894
214 1 0.0510598 0.956457 0.618505
31 1 0.0382038 0.870533 0.885031
63 1 0.187194 0.871983 0.837453
44 1 0.0866871 0.964509 0.772587
347 2 0.113692 0.770927 0.82497
168 1 0.152658 0.99288 0.917761
192 1 0.147523 0.860552 0.990427
306 2 0.0579575 0.963188 0.997947
108 1 0.386657 0.177981 0.0580163
276 1 0.393087 0.0617579 0.185404
20 1 0.493604 0.0810585 0.0555184
255 1 0.475205 0.218451 0.180207
327 2 0.345089 0.199632 0.189632
250 1 0.28522 0.0852794 0.00165317
133 1 0.428156 0.122432 0.33748
156 1 0.325467 0.0815162 0.460062
91 1 0.269409 0.141406 0.286061
269 1 0.462291 0.197584 0.457367
7 1 0.365991 0.0588292 0.719495
126 1 0.423936 0.170673 0.613924
359 2 0.35668 0.0522965 0.573938
74 1 0.462582 0.0445425 0.517211
212 1 0.266024 0.173883 0.577637
174 1 0.418374 0.130151 0.912777
316 2 0.435118 0.023892 0.821568
15 1 0.343404 0.208394 0.777186
340 2 0.305568 0.106459 0.852484
104 1 0.478953 0.147399 0.760732
236 1 0.301922 0.22853 0.946693
222 1 0.270585 0.423488 0.185197
343 2 0.275046 0.270244 0.0624018
123 1 0.371176 0.328359 0.117261
143 1 0.343112 0.49309 0.0678898
216 1 0.481665 0.282153 0.0194982
211 1 0.454956 0.344479 0.423024
128 1 0.352309 0.270016 0.297134
329 2 0.33679 0.385156 0.396354
266 1 0.313033 0.257905 0.43791
215 1 0.422546 0.42703 0.258897
181 1 0.477568 0.499953 0.383463
34 1 0.27388 0.306842 0.684162
268 1 0.37234 0.314409 0.564159
80 1 0.357889 0.442501 0.670072
122 1 0.464574 0.294992 0.712947
312 2 0.481398 0.423148 0.703604
176 1 0.3655 0.483105 0.506465
110 1 0.26997 0.362307 0.827728
209 1 0.402727 0.414168 0.81171
199 1 0.37927 0.370493 0.965402
275 1 0.446071 0.269541 0.869081
22 1 0.30211 0.498168 0.893158
112 1 0.252421 0.584643 0.221769
300 2 0.279159 0.629266 0.106345
46 1 0.425144 0.615285 0.111899
124 1 0.348135 0.727662 0.207896
303 2 0.496568 0.508979 0.188579
105 1 0.250005 0.739009 0.0444617
271 1 0.316697 0.667561 0.34824
295 2 0.395332 0.593933 0.420695
283 1 0.493238 0.663516 0.371656
52 1 0.416262 0.593851 0.269376
227 1 0.312856 0.507491 0.352262
3 1 0.392927 0.579449 0.644741
165 1 0.492917 0.58925 0.507632
178 1 0.282841 0.673264 0.71677
259 1 0.330804 0.646857 0.517586
256 1 0.401456 0.746179 0.628697
120 1 0.354267 0.635728 0.946986
284 1 0.404454 0.565747 0.78684
118 1 0.401256 0.709196 0.814744
345 2 0.284699 0.613725 0.837476
234 1 0.455616 0.507099 0.926726
258 1 0.25193 0.742733 0.856423
89 1 0.410291 0.913976 0.102302
356 2 0.298821 0.992334 0.117687
204 1 0.400143 0.760755 0.0522766
147 1 0.273707 0.857845 0.158863
285 1 0.351024 0.938831 0.485528
28 1 0.30291 0.839136 0.312986
351 2 0.419619 0.887652 0.39047
137 1 0.332839 0.988169 0.326719
226 1 0.399174 0.771153 0.451932
293 2 0.408663 0.763937 0.325704
69 1 0.455657 0.910298 0.251145
27 1 0.412734 0.93617 0.645857
337 2 0.471204 0.812923 0.727878
352 2 0.395835 0.844523 0.560041
239 1 0.261239 0.840643 0.59159
187 1 0.426382 0.971701 0.961763
146 1 0.458354 0.900954 0.829573
54 1 0.361888 0.820733 0.925377
5 1 0.309796 0.976095 0.848945
1 1 0.329713 0.835318 0.751185
154 1 0.278432 0.932129 0.99446
272 1 0.537917 0.0624446 0.245906
326 2 0.568018 0.212863 0.077017
261 1 0.643799 0.0930115 0.0693532
139 1 0.70637 0.0518775 0.207848
179 1 0.637459 0.193388 0.195167
197 1 0.681275 0.244765 0.0505437
336 2 0.588712 0.000406947 0.142595
180 1 0.728855 0.158781 0.320174
225 1 0.568397 0.174644 0.341347
308 2 0.554525 0.0892176 0.439116
151 1 0.653683 0.0388691 0.361204
282 1 0.648497 0.175578 0.4706
71 1 0.732289 0.0982759 0.59945
224 1 0.578709 0.105689 0.614915
302 2 0.5679 0.208111 0.696823
26 1 0.699966 0.230259 0.67333
78 1 0.524899 0.0123245 0.715443
81 1 0.54465 0.0461893 0.879538
117 1 0.577056 0.174877 0.950508
169 1 0.706285 0.045429 0.918777
99 1 0.636428 0.123648 0.761521
51 1 0.728691 0.223969 0.913402
332 2 0.647171 0.0020628 0.805242
319 2 0.614471 0.397513 0.0327531
42 1 0.585587 0.338359 0.139169
14 1 0.501486 0.442965 0.0747459
73 1 0.650494 0.492785 0.111914
267 1 0.588136 0.450121 0.242718
88 1 0.749198 0.364855 0.128327
32 1 0.624496 0.414183 0.396514
60 1 0.718053 0.287862 0.400489
322 2 0.581132 0.29004 0.442457
43 1 0.528396 0.314801 0.292862
163 1 0.673395 0.323537 0.261394
228 1 0.731524 0.436341 0.6885
127 1 0.59325 0.367984 0.701257
188 1 0.553188 0.259912 0.56413
114 1 0.683405 0.336111 0.553234
231 1 0.516831 0.406575 0.534164
55 1 0.669606 0.49105 0.543837
273 1 0.537857 0.380775 0.934173
301 2 0.532542 0.364399 0.815116
10 1 0.600356 0.258723 0.811769
289 2 0.621788 0.291095 0.93618
102 1 0.659846 0.405211 0.836156
161 1 0.722016 0.364457 0.96489
13 1 0.540721 0.490818 0.795175
262 1 0.712856 0.65111 0.174673
150 1 0.560069 0.701181 0.0980905
53 1 0.576316 0.604939 0.211814
354 2 0.543773 0.577685 0.0498652
6 1 0.689709 0.634257 0.0194024
346 2 0.605787 0.692217 0.300334
138 1 0.642094 0.658611 0.437718
229 1 0.654369 0.552357 0.328768
321 2 0.582833 0.537746 0.447995
183 1 0.7491 0.66469 0.325037
297 2 0.59569 0.625704 0.58565
109 1 0.663826 0.577853 0.704595
115 1 0.530139 0.68721 0.681109
218 1 0.673814 0.718502 0.612162
241 1 0.522909 0.737203 0.520696
278 1 0.537136 0.517529 0.648157
292 2 0.63238 0.713863 0.741022
21 1 0.626154 0.643171 0.867192
149 1 0.61285 0.511521 0.963811
353 2 0.50807 0.631687 0.797856
96 1 0.749906 0.696955 0.75167
170 1 0.50014 0.662118 0.957449
65 1 0.698351 0.922548 0.135854
48 1 0.552406 0.86278 0.118318
175 1 0.674608 0.784637 0.0515464
119 1 0.649324 0.778209 0.217101
257 1 0.607113 0.961862 0.0130935
193 1 0.502669 0.750712 0.228564
304 2 0.612159 0.911357 0.425071
237 1 0.684741 0.79697 0.373402
142 1 0.530563 0.826263 0.366394
58 1 0.610961 0.916839 0.262702
98 1 0.510793 0.981315 0.380046
4 1 0.553227 0.855173 0.646732
158 1 0.669933 0.848977 0.535644
217 1 0.671039 0.97922 0.669634
324 2 0.542243 0.970175 0.595041
50 1 0.685537 0.844374 0.728093
92 1 0.510691 0.892041 0.504678
244 1 0.63784 0.995152 0.508514
62 1 0.618006 0.899774 0.876442
243 1 0.727266 0.769035 0.894861
252 1 0.54737 0.763839 0.815149
344 2 0.575267 0.904288 0.752623
253 1 0.518003 0.846072 0.978042
320 2 0.602544 0.76173 0.945947
235 1 0.921505 0.118983 0.0145266
87 1 0.790934 0.174052 0.158825
11 1 0.944704 0.148022 0.174184
270 1 0.799216 0.0247349 0.0737486
189 1 0.841606 0.245239 0.0310967
287 1 0.868711 0.0137099 0.215019
101 1 0.793944 0.0897723 0.444697
186 1 0.886893 0.141715 0.321551
325 2 0.783802 0.0265344 0.327644
296 2 0.833093 0.226801 0.408031
23 1 0.949347 0.142185 0.467594
200 1 0.896391 0.0652758 0.583342
131 1 0.857522 0.171701 0.690594
39 1 0.801453 0.213817 0.537014
30 1 0.997806 0.200759 0.605816
67 1 0.794171 0.0560828 0.748736
47 1 0.963906 0.0886545 0.745383
298 2 0.863703 0.224098 0.896148
279 1 0.837793 0.0955862 0.896975
350 2 0.772882 0.173223 0.780603
358 2 0.768426 0.145279 0.999882
338 2 0.982818 0.406707 0.0985299
162 1 0.867158 0.400931 0.0331865
167 1 0.914586 0.319865 0.170016
201 1 0.903107 0.490427 0.177996
203 1 0.991618 0.27277 0.0316212
335 2 0.820059 0.386629 0.237172
342 2 0.788879 0.498386 0.0932231
83 1 0.833979 0.273459 0.282201
333 2 0.873393 0.492715 0.442244
40 1 0.849713 0.356623 0.466435
140 1 0.928096 0.414914 0.340568
19 1 0.766125 0.441937 0.363308
196 1 0.980522 0.265012 0.320523
66 1 0.989449 0.303559 0.495952
155 1 0.838663 0.470309 0.580639
79 1 0.840588 0.32463 0.637333
84 1 0.979202 0.450156 0.501739
35 1 0.886283 0.444971 0.733025
277 1 0.989032 0.369064 0.650985
246 1 0.902557 0.344129 0.888342
328 2 0.785689 0.416397 0.851162
191 1 0.767587 0.306178 0.790969
219 1 0.898443 0.497889 0.911777
185 1 0.960992 0.264778 0.750165
16 1 0.89142 0.655042 0.192153
100 1 0.758624 0.504853 0.222991
281 1 0.869796 0.590753 0.050561
153 1 0.816991 0.726525 0.0532706
144 1 0.978114 0.707911 0.0566273
314 2 0.852021 0.671332 0.42177
129 1 0.952228 0.695213 0.336861
75 1 0.874515 0.569506 0.333922
111 1 0.770013 0.557004 0.457189
134 1 0.921551 0.597307 0.492981
85 1 0.768958 0.725292 0.49887
103 1 0.958184 0.557941 0.637938
288 1 0.904719 0.703459 0.67494
260 1 0.788132 0.618447 0.616667
93 1 0.874039 0.666699 0.918117
309 2 0.753204 0.62582 0.90215
130 1 0.904222 0.590958 0.785939
145 1 0.755261 0.506082 0.956417
152 1 0.764939 0.533539 0.803267
25 1 0.987925 0.728925 0.816925
310 2 0.991817 0.743714 0.94119
57 1 0.853504 0.875829 0.115292
41 1 0.804378 0.772067 0.215082
305 2 0.915721 0.773039 0.151549
263 1 0.926523 0.863655 0.247397
182 1 0.986408 0.998021 0.111614
184 1 0.846029 0.797682 0.374221
12 1 0.764736 0.912081 0.277525
208 1 0.902868 0.985688 0.374606
18 1 0.997852 0.860315 0.379237
61 1 0.755934 0.928474 0.424479
159 1 0.802516 0.811734 0.623441
341 2 0.930939 0.835547 0.633145
37 1 0.904244 0.94868 0.682256
8 1 0.923973 0.922294 0.516991
290 2 0.779868 0.921864 0.696017
45 1 0.782117 0.961208 0.5658
194 1 0.916431 0.759615 0.518568
318 2 0.819281 0.849504 0.502794
132 1 0.88852 0.817313 0.927841
220 1 0.902559 0.98097 0.829004
238 1 0.762378 0.925358 0.830229
76 1 0.866745 0.820205 0.770603
205 1 0.7502 0.896674 0.983611
70 1 0.907734 0.958977 0.98253
ITEM: TIMESTEP
300000
ITEM: NUMBER OF ATOMS
360
ITEM: BOX BOUNDS pp pp pp
0.0000000000000000e+00 6.6943295008216896e+00
0.0000000000000000e+00 6.6943295008216896e+00
0.0000000000000000e+00 6.6943295008216896e+00
ITEM: ATOMS id type xs ys zs
248 1 0.102291 0.203481 0.185045
235 1 0.0786651 0.0493719 0.0861612
242 1 0.210892 0.13451 0.0977056
141 1 0.118461 0.234038 0.0339712
206 1 0.168217 0.0812944 0.234455
173 1 0.0110259 0.0879616 0.237741
208 1 0.0203421 0.0505656 0.39779
107 1 0.17569 0.0974582 0.392789
135 1 0.0672128 0.212893 0.346215
232 1 0.235011 0.229066 0.330268
95 1 0.19329 0.251017 0.474117
307 2 0.0928729 0.0409777 0.503547
200 1 0.0614781 0.171959 0.489653
317 2 0.155269 0.179996 0.583007
214 1 0.0881811 0.0754141 0.623447
254 1 0.0792076 0.207181 0.703579
212 1 0.217972 0.0806283 0.536904
172 1 0.229406 0.124704 0.694401
90 1 0.0875741 0.173403 0.896428
31 1 0.188762 0.0693031 0.841534
44 1 0.0501248 0.067609 0.783257
358 2 0.139903 0.0970174 0.980232
210 1 0.0652775 0.0127891 0.934284
86 1 0.197422 0.240203 0.802088
56 1 0.243498 0.168663 0.950309
157 1 0.225929 0.00558321 0.997037
245 1 0.146086 0.376683 0.104575
338 2 0.0682021 0.454391 0.217056
181 1 0.205608 0.449797 0.219049
164 1 0.0445055 0.431962 0.0122973
66 1 0.201934 0.384083 0.37904
259 1 0.0651599 0.448458 0.393977
340 2 0.0961287 0.326236 0.444652
112 1 0.100606 0.334366 0.260611
230 1 0.0358343 0.303869 0.562194
9 1 0.15945 0.412696 0.530008
313 2 0.0784185 0.34672 0.684759
64 1 0.203734 0.289607 0.644524
277 1 0.0284352 0.443965 0.609618
148 1 0.157803 0.341786 0.933567
311 2 0.0736672 0.429483 0.879752
251 1 0.0662833 0.31828 0.810277
265 1 0.0350777 0.464809 0.770324
22 1 0.183865 0.39331 0.767863
160 1 0.190269 0.487679 0.993299
68 1 0.101848 0.530772 0.120186
105 1 0.163025 0.669096 0.168482
300 2 0.168764 0.618159 0.0430651
38 1 0.121809 0.74642 0.0256961
36 1 0.202428 0.537492 0.42095
116 1 0.0789897 0.641295 0.44029
299 2 0.130963 0.687329 0.331292
28 1 0.238093 0.684335 0.403559
233 1 0.108425 0.568877 0.274606
202 1 0.00758096 0.69884 0.290538
264 1 0.260949 0.598798 0.273623
351 2 0.00227659 0.55526 0.36374
166 1 0.0256437 0.6059 0.584623
125 1 0.11337 0.717646 0.651956
323 2 0.0591907 0.590595 0.698864
240 1 0.181018 0.619152 0.555106
249 1 0.162491 0.512819 0.666514
294 2 0.0972011 0.52548 0.512767
178 1 0.205685 0.642087 0.747326
136 1 0.0702012 0.581344 0.977641
82 1 0.147085 0.67538 0.887284
305 2 0.0273491 0.694503 0.948937
274 1 0.160798 0.530044 0.840984
349 2 0.0857069 0.737817 0.78878
103 1 0.01944 0.631358 0.822555
94 1 0.188559 0.955296 0.160959
33 1 0.0655043 0.781304 0.169605
207 1 0.0987475 0.899941 0.0426431
190 1 0.2172 0.813524 0.12003
17 1 0.00694742 0.932477 0.164098
221 1 0.0880485 0.793635 0.38345
18 1 0.0924884 0.957519 0.285769
5 1 0.158499 0.936598 0.441624
223 1 0.211867 0.770882 0.271523
357 2 0.0301225 0.850932 0.281397
288 1 0.0761477 0.855363 0.750801
239 1 0.0689737 0.907557 0.593741
2 1 0.216647 0.927618 0.585065
347 2 0.164505 0.834538 0.656321
24 1 0.182416 0.784346 0.520668
247 1 0.177355 0.982137 0.718666
341 2 0.0388812 0.970868 0.706439
8 1 0.0218795 0.767292 0.539489
1 1 0.219662 0.786828 0.780747
63 1 0.117601 0.852238 0.896989
344 2 0.116585 0.952949 0.826873
15 1 0.261197 0.929022 0.843335
310 2 -0.00133762 0.903915 0.951327
113 1 0.342295 0.0595136 0.166649
327 2 0.290014 0.161133 0.238294
20 1 0.360738 0.0844166 0.0164627
216 1 0.357083 0.207572 0.117545
255 1 0.492534 0.120767 0.155776
326 2 0.44709 0.197398 0.392758
355 2 0.437656 0.0203434 0.389465
91 1 0.32634 0.104842 0.349941
329 2 0.279395 0.151472 0.446657
266 1 0.402083 0.115953 0.484111
133 1 0.486708 0.108391 0.306514
128 1 0.393405 0.246036 0.269506
104 1 0.384225 0.0928727 0.661998
34 1 0.30482 0.192286 0.569032
316 2 0.426893 0.208638 0.610864
236 1 0.354534 0.243216 0.710312
268 1 0.486103 0.255706 0.505631
306 2 0.303184 0.018609 0.750787
168 1 0.328829 0.132097 0.809187
275 1 0.462657 0.217458 0.84346
302 2 0.380315 0.186532 0.929036
187 1 0.460622 0.0553314 0.896166
320 2 0.322705 0.0308762 0.883571
143 1 0.363006 0.462891 0.0142373
123 1 0.390953 0.366241 0.143397
106 1 0.274069 0.3087 0.0262189
108 1 0.250187 0.296464 0.190657
334 2 0.268675 0.412949 0.101998
126 1 0.344526 0.271276 0.427063
211 1 0.433133 0.482204 0.378635
227 1 0.341392 0.379031 0.304304
360 2 0.433291 0.384547 0.458768
225 1 0.48415 0.317233 0.358663
271 1 0.313304 0.418857 0.481971
80 1 0.395112 0.33557 0.598819
312 2 0.439956 0.445245 0.665661
110 1 0.291305 0.428211 0.664435
330 2 0.271122 0.322195 0.547933
278 1 0.4278 0.487648 0.544404
174 1 0.321651 0.290578 0.875229
120 1 0.284619 0.430277 0.878039
209 1 0.476626 0.431005 0.913774
122 1 0.444754 0.356398 0.772987
199 1 0.423785 0.288436 0.98946
331 2 0.309892 0.361746 0.762631
258 1 0.396483 0.61955 0.0458393
154 1 0.326351 0.695976 0.167414
204 1 0.477702 0.731264 0.200303
215 1 0.375781 0.509346 0.230315
72 1 0.267364 0.701384 0.0142861
222 1 0.266955 0.545203 0.110274
46 1 0.413046 0.630141 0.311227
303 2 0.325736 0.728775 0.330852
176 1 0.48526 0.630095 0.458158
165 1 0.340852 0.585868 0.463062
354 2 0.49466 0.520678 0.266677
295 2 0.31171 0.512027 0.356857
124 1 0.375424 0.729786 0.457114
283 1 0.425257 0.699814 0.615479
3 1 0.327246 0.572159 0.632623
352 2 0.289735 0.680757 0.543223
115 1 0.490993 0.566697 0.656368
226 1 0.276091 0.756573 0.639043
321 2 0.244581 0.507328 0.562418
353 2 0.425557 0.555379 0.921246
118 1 0.389301 0.709874 0.909097
348 2 0.265689 0.762357 0.895181
286 1 0.296263 0.591537 0.883389
284 1 0.385269 0.496863 0.783414
256 1 0.363521 0.657476 0.753506
345 2 0.267285 0.51879 0.751482
192 1 0.389974 0.775533 0.0544629
42 1 0.346546 0.915115 0.0976772
276 1 0.424791 0.960174 0.264551
337 2 0.467088 0.878157 0.024088
150 1 0.354861 0.83304 0.253243
257 1 0.480598 0.998917 0.071651
59 1 0.271163 0.957867 0.296999
156 1 0.414131 0.879567 0.389621
121 1 0.314045 0.99458 0.459617
198 1 0.265547 0.843994 0.396914
195 1 0.313855 0.899562 0.694872
7 1 0.46512 0.969869 0.527943
285 1 0.35099 0.844096 0.550418
241 1 0.464485 0.858199 0.651977
359 2 0.317933 1.00046 0.606099
146 1 0.421873 0.965274 0.781463
250 1 0.379103 0.928506 0.944272
27 1 0.392049 0.816491 0.807044
54 1 0.259998 0.850223 0.976771
253 1 0.501458 0.828306 0.905092
261 1 0.630818 0.174866 0.225597
270 1 0.622322 0.0517222 0.03816
197 1 0.693595 0.194318 0.0882505
272 1 0.742895 0.0554427 0.149524
69 1 0.582622 -0.000483454 0.190882
117 1 0.509746 0.162621 0.00805387
180 1 0.588469 0.210598 0.397215
137 1 0.556073 0.0770442 0.454576
151 1 0.64613 0.0647087 0.324748
98 1 0.708481 0.0631517 0.476192
308 2 0.52681 0.239855 0.259315
186 1 0.755913 0.183559 0.371345
99 1 0.670062 0.173864 0.665758
127 1 0.519211 0.112673 0.59249
269 1 0.639611 0.0200927 0.628622
324 2 0.626449 0.153855 0.524269
231 1 0.521158 0.2384 0.699646
78 1 0.525811 0.0865372 0.752035
298 2 0.660107 0.00122287 0.752963
244 1 0.609157 0.0500508 0.877685
10 1 0.634308 0.192198 0.815232
51 1 0.712717 0.163177 0.940935
289 2 0.746621 0.050835 0.874715
88 1 0.660576 0.361425 0.144379
14 1 0.51213 0.417347 0.0618113
43 1 0.533498 0.269072 0.122012
267 1 0.521083 0.402529 0.230727
145 1 0.734267 0.505144 0.0648346
32 1 0.567295 0.395496 0.454274
296 2 0.60495 0.41525 0.334161
224 1 0.724826 0.325304 0.450098
163 1 0.653749 0.306612 0.283465
26 1 0.633866 0.279791 0.559628
60 1 0.70338 0.422264 0.589266
188 1 0.536673 0.381757 0.62416
228 1 0.6656 0.328662 0.708487
191 1 0.581856 0.334942 0.841092
301 2 0.696734 0.41009 0.813727
234 1 0.634469 0.43854 0.94782
102 1 0.55267 0.470918 0.761861
273 1 0.592226 0.291386 0.982936
161 1 0.742328 0.331534 1.0075
131 1 0.757868 0.302393 0.84457
21 1 0.644802 0.628711 0.100592
319 2 0.604165 0.501483 0.0972961
73 1 0.50262 0.562449 0.145736
62 1 0.531887 0.738901 0.0294015
262 1 0.751889 0.755306 0.16673
342 2 0.724696 0.629484 0.209145
281 1 0.653618 0.50427 0.222246
183 1 0.726488 0.605156 0.339114
53 1 0.643547 0.641997 0.453632
19 1 0.582677 0.546755 0.351978
6 1 0.60542 0.664258 0.245473
140 1 0.719052 0.501346 0.447396
55 1 0.579677 0.533574 0.539729
114 1 0.727631 0.586305 0.588843
138 1 0.576806 0.708071 0.582889
297 2 0.628545 0.528187 0.651468
218 1 0.637965 0.646789 0.727585
152 1 0.732672 0.515468 0.72828
96 1 0.51111 0.751317 0.749945
170 1 0.59569 0.692202 0.899419
292 2 0.716633 0.671812 0.834544
149 1 0.654528 0.549791 0.853353
193 1 0.553133 0.56404 0.986477
13 1 0.498158 0.597659 0.826083
153 1 0.72149 0.63106 0.963415
147 1 0.517686 0.865926 0.137701
89 1 0.660351 0.908399 0.104278
293 2 0.594815 0.761093 0.141832
175 1 0.679195 0.774382 0.0274512
325 2 0.699102 0.964485 0.245368
65 1 0.630177 0.851843 0.242906
142 1 0.607168 0.933487 0.488964
304 2 0.610994 0.850955 0.38389
12 1 0.669656 0.791592 0.481924
48 1 0.547865 0.957207 0.352407
119 1 0.711891 0.932615 0.376029
229 1 0.71324 0.762439 0.331807
346 2 0.505211 0.853348 0.269375
52 1 0.53922 0.754537 0.348357
74 1 0.613599 0.866423 0.641377
85 1 0.727444 0.7567 0.618654
343 2 0.522663 0.970764 0.68722
92 1 0.499851 0.813861 0.499279
81 1 0.595292 0.919997 0.972573
238 1 0.722148 0.929494 0.864159
332 2 0.627683 0.811819 0.896872
252 1 0.581692 0.915319 0.799912
4 1 0.682795 0.804276 0.772107
339 2 0.734143 0.889639 0.984753
87 1 0.84316 0.142231 0.0739852
179 1 0.798465 0.18652 0.215716
139 1 0.901363 0.0387079 0.171344
356 2 0.92524 0.161388 0.171578
70 1 0.763134 0.00951234 -0.00840524
23 1 0.895947 0.153716 0.334106
30 1 0.792501 0.0391692 0.296387
39 1 0.904697 0.154236 0.487994
101 1 0.851574 0.00543278 0.435281
47 1 0.941615 0.176332 0.636337
37 1 0.911338 0.0606078 0.72139
71 1 0.824792 0.0406867 0.599068
217 1 0.813648 0.22335 0.712293
177 1 0.961406 0.0303057 0.544776
282 1 0.771778 0.202444 0.545066
279 1 0.9528 0.198995 0.808269
220 1 0.886046 0.0543274 0.881608
328 2 0.816755 0.174745 0.844767
57 1 0.974103 0.136484 0.989018
67 1 0.853893 0.245558 0.971873
158 1 0.762227 0.077859 0.753127
201 1 0.823291 0.497966 0.207303
167 1 0.816183 0.320825 0.149528
280 1 0.955517 0.407074 0.148123
189 1 0.881276 0.385626 0.0192484
77 1 0.97045 0.252708 0.0907462
83 1 0.951789 0.274022 0.233287
287 1 0.83028 0.306341 0.3166
29 1 0.95464 0.297868 0.423161
196 1 0.935499 0.412539 0.301394
40 1 0.849089 0.419677 0.438964
291 2 0.830441 0.264365 0.454003
100 1 0.748127 0.433354 0.31018
322 2 0.966252 0.398674 0.49199
50 1 0.817943 0.388063 0.722912
79 1 0.864615 0.321007 0.563601
185 1 0.960809 0.331059 0.694964
350 2 0.748432 0.29648 0.622971
155 1 0.849941 0.487197 0.583277
93 1 0.783102 0.44644 0.891808
246 1 0.893388 0.349034 0.847603
315 2 0.891041 0.473556 0.783865
203 1 0.99657 0.304174 0.947596
213 1 0.968365 0.56039 0.218138
243 1 0.831664 0.621526 0.083745
162 1 0.935142 0.523426 0.0533217
144 1 0.990826 0.663737 0.105821
84 1 0.866811 0.543133 0.346935
97 1 0.956273 0.520609 0.470205
111 1 0.783167 0.69678 0.452853
333 2 0.828429 0.573452 0.493075
134 1 0.931227 0.666622 0.418345
16 1 0.842801 0.676396 0.267092
260 1 0.803878 0.688802 0.732469
49 1 0.868922 0.657564 0.586197
35 1 0.932813 0.564711 0.711148
194 1 0.968837 0.737527 0.703432
130 1 0.829007 0.586367 0.836854
171 1 0.90852 0.652334 0.939907
309 2 0.904775 0.698038 0.820149
335 2 0.842173 0.546837 0.96319
219 1 0.946577 0.498529 0.889896
263 1 0.83442 0.756922 0.0324446
129 1 0.915012 0.80112 0.188709
205 1 0.825684 0.914554 0.104912
41 1 0.974829 0.803658 0.0379853
182 1 0.945228 0.981272 0.0291726
11 1 0.933131 0.958774 0.300491
75 1 0.910616 0.795299 0.34829
314 2 0.838481 0.889683 0.393066
184 1 0.993047 0.902322 0.438693
58 1 0.802445 0.880524 0.261707
45 1 0.926549 0.916637 0.66379
318 2 0.870746 0.929455 0.54281
290 2 0.870947 0.802235 0.633161
61 1 0.750527 0.906848 0.54195
169 1 0.756399 0.924669 0.703472
237 1 0.870133 0.80621 0.508641
132 1 0.856445 0.897402 0.928446
336 2 0.831389 0.960368 0.800942
25 1 0.983644 0.787944 0.862432
76 1 0.964664 0.933947 0.828838
159 1 0.860253 0.834966 0.764677
109 1 0.760613 0.769979 0.896699
ITEM: TIMESTEP
600000
ITEM: NUMBER OF ATOMS
360
ITEM: BOX BOUNDS pp pp pp
0.0000000000000000e+00 6.6943295008216896e+00
0.0000000000000000e+00 6.6943295008216896e+00
0.0000000000000000e+00 6.6943295008216896e+00
ITEM: ATOMS id type xs ys zs
121 1 0.218893 0.0185706 0.0703966
254 1 0.101634 0.106059 0.00768635
246 1 0.0577743 0.197698 0.137765
248 1 0.0919825 0.0532738 0.171054
308 2 0.211275 0.189071 0.00839538
141 1 0.211307 0.153727 0.14953
41 1 0.232091 0.013252 0.230854
327 2 0.21055 0.0751223 0.385195
322 2 0.149102 0.118798 0.271684
66 1 0.120193 0.177085 0.384828
95 1 0.0171566 0.155637 0.274995
205 1 0.0824423 0.0279596 0.333861
230 1 0.22218 0.181909 0.498438
307 2 0.0123425 0.239152 0.410564
29 1 0.132735 0.0446322 0.483635
251 1 0.175804 0.139968 0.638046
31 1 0.0425005 0.0843403 0.674031
185 1 0.0590623 0.176359 0.541843
323 2 0.0736379 0.207371 0.676523
289 2 0.131893 0.121963 0.869423
15 1 0.0608839 0.00998068 0.816518
279 1 0.00459876 0.168669 0.841616
214 1 0.207021 0.0623096 0.786096
90 1 0.104899 0.23606 0.938374
222 1 0.248155 0.22838 0.886733
68 1 0.126512 0.406097 0.187581
303 2 0.166271 0.421512 0.0515776
112 1 0.204224 0.30211 0.0909294
162 1 0.0498132 0.339674 0.0565724
235 1 0.0107042 0.311037 0.219396
145 1 0.061297 0.496513 0.0636687
351 2 0.0860632 0.37525 0.341006
126 1 0.159077 0.268237 0.263205
34 1 0.204133 0.423224 0.326747
155 1 0.115716 0.334133 0.456443
64 1 0.0907368 0.494058 0.41308
211 1 0.237026 0.418992 0.468544
213 1 0.0130553 0.472584 0.275827
277 1 0.146326 0.420246 0.725364
110 1 0.122037 0.464163 0.574896
249 1 0.168419 0.297734 0.595598
203 1 0.00807363 0.326957 0.74702
50 1 0.015189 0.310559 0.591892
294 2 0.00718558 0.409149 0.506312
103 1 0.237545 0.37344 0.835365
345 2 0.104124 0.343215 0.829618
135 1 0.100516 0.416538 0.935897
171 1 0.0229133 0.481931 0.825711
335 2 0.195986 0.327529 0.9538
148 1 0.159403 0.248862 0.761038
280 1 0.0377036 0.633666 0.185236
150 1 0.224783 0.688576 0.209045
160 1 0.164736 0.581612 0.120438
11 1 0.246344 0.704718 0.050231
38 1 0.0995685 0.663295 0.00423248
264 1 0.145186 0.661104 0.418884
330 2 0.179308 0.537853 0.484539
173 1 0.0100063 0.74279 0.453005
259 1 -0.00602396 0.619512 0.35216
33 1 0.13929 0.570212 0.290317
107 1 0.103274 0.738406 0.296234
240 1 0.0796636 0.562747 0.693144
233 1 0.0260759 0.700405 0.61237
352 2 0.197413 0.536765 0.664756
36 1 0.162349 0.630137 0.579247
9 1 0.0115279 0.573088 0.523589
313 2 0.0932838 0.702595 0.734915
321 2 0.123529 0.737363 0.529231
348 2 0.180895 0.549461 0.986484
120 1 0.237381 0.643531 0.90124
166 1 0.0668856 0.643464 0.852646
292 2 0.0229831 0.551722 0.944104
178 1 0.17435 0.516171 0.857803
226 1 0.204385 0.628329 0.751554
63 1 0.0881962 0.931595 0.0716115
16 1 0.116301 0.771076 0.128859
305 2 0.186876 0.804567 0.224417
59 1 0.236861 0.864853 0.122389
243 1 0.120736 0.907445 0.227407
223 1 0.0254336 0.865485 0.346237
198 1 0.214469 0.945569 0.370311
317 2 0.0692751 0.93656 0.438545
28 1 0.136977 0.833604 0.449739
7 1 0.240911 0.786511 0.350574
247 1 0.154347 0.930558 0.703259
195 1 0.207963 0.932607 0.559686
24 1 0.183946 0.781602 0.637356
221 1 0.0438546 0.850001 0.573911
35 1 0.018524 0.873042 0.910188
2 1 0.171346 0.774235 0.829922
344 2 0.12259 0.886924 0.848688
237 1 0.0365854 0.810949 0.767648
349 2 0.0684092 0.749328 0.92181
207 1 0.151585 0.823869 0.984545
157 1 0.166069 0.986528 0.915698
339 2 0.3435 0.069708 0.219712
147 1 0.35849 0.0895989 0.0796832
78 1 0.365252 0.19939 0.176813
242 1 0.33695 0.224349 0.0149548
268 1 0.489661 0.189144 0.0815017
180 1 0.479994 0.0597595 0.155318
244 1 0.444271 0.124454 0.291903
86 1 0.371522 0.175507 0.434882
200 1 0.276751 0.152807 0.30057
74 1 0.457522 0.0467319 0.451578
133 1 0.348076 0.013653 0.341477
266 1 0.291606 0.0384241 0.478453
168 1 0.351736 0.132926 0.584213
146 1 0.300511 0.16686 0.734655
354 2 0.271016 0.22987 0.610275
20 1 0.452934 0.0796763 0.678452
275 1 0.298919 0.0127847 0.667317
113 1 0.357836 0.0318799 0.825501
94 1 0.393414 0.17844 0.850253
358 2 0.462267 0.242362 0.951739
238 1 0.467289 0.0790756 0.948443
44 1 0.280833 0.0930292 0.939711
216 1 0.432985 0.325046 0.152292
190 1 0.273148 0.451033 0.132601
324 2 0.320551 0.346558 0.0652338
154 1 0.298979 0.320506 0.210339
163 1 0.41361 0.435317 0.0335814
117 1 0.419656 0.485923 0.197895
91 1 0.361579 0.430051 0.334773
271 1 0.384032 0.449504 0.491667
212 1 0.397266 0.274251 0.310453
188 1 0.485864 0.337691 0.443862
232 1 0.258962 0.298761 0.386539
19 1 0.491851 0.498215 0.38315
80 1 0.359379 0.307311 0.546886
122 1 0.289066 0.336202 0.691161
3 1 0.287371 0.473222 0.738242
22 1 0.410051 0.423772 0.635787
312 2 0.483598 0.313718 0.586839
331 2 0.274725 0.410049 0.592927
56 1 0.428123 0.254475 0.689319
108 1 0.418299 0.404708 0.793452
274 1 0.378156 0.329972 0.914012
310 2 0.339635 0.286467 0.798224
353 2 0.497415 0.385336 0.89976
245 1 0.271958 0.42722 0.980736
215 1 0.281264 0.550671 0.240213
192 1 0.312703 0.562923 0.0399046
52 1 0.375424 0.666942 0.154408
204 1 0.465423 0.590193 0.0471784
337 2 0.401858 0.715805 0.0365585
227 1 0.41798 0.611462 0.304407
42 1 0.484245 0.741322 0.247748
299 2 0.293466 0.679918 0.338251
181 1 0.271227 0.56514 0.392324
176 1 0.395008 0.614031 0.475628
285 1 0.312525 0.664225 0.631265
165 1 0.286996 0.532515 0.570422
115 1 0.450519 0.565154 0.627719
13 1 0.441224 0.733734 0.682832
53 1 0.258941 0.746102 0.505696
286 1 0.381648 0.67377 0.892173
284 1 0.336308 0.511358 0.877108
258 1 0.484436 0.526198 0.900244
256 1 0.377513 0.601455 0.755914
62 1 0.373772 0.823021 0.093401
27 1 0.455253 0.951496 0.0353191
276 1 0.373208 0.9467 0.18533
69 1 0.326259 0.79807 0.234965
326 2 0.477766 0.969845 0.25601
261 1 0.420558 0.88217 0.318866
92 1 0.341852 0.880972 0.464795
346 2 0.298538 0.906312 0.289412
124 1 0.386163 0.756321 0.388781
1 1 0.34235 0.831863 0.611822
241 1 0.440268 0.958761 0.594365
12 1 0.460799 0.779098 0.524743
104 1 0.391516 0.897786 0.736243
304 2 0.262771 0.868299 0.69657