ITEM: TIMESTEP
0
ITEM: NUMBER OF ATOMS
360
ITEM: BOX BOUNDS pp pp pp
0.0000000000000000e+00 6.6943295008216896e+00
0.0000000000000000e+00 6.6943295008216896e+00
0.0000000000000000e+00 6.6943295008216896e+00
ITEM: ATOMS id type xs ys zs
327 2 0.155703 0.119681 0.182207
126 1 0.216791 0.168311 0.0951643
255 1 0.0402998 0.067315 0.133131
116 1 0.0641631 0.237637 0.0549032
135 1 0.0036106 0.212109 0.204004
45 1 0.126369 0.00599131 0.247812
11 1 0.193684 0.0384196 0.394615
153 1 0.115627 0.152788 0.326007
186 1 0.164264 0.194043 0.471738
198 1 0.0595546 0.0567307 0.483529
23 1 0.101466 0.141683 0.598946
314 2 0.0260977 0.031729 0.624805
206 1 0.0968774 0.070206 0.732565
175 1 0.239625 0.113711 0.698246
112 1 0.110648 0.231474 0.73426
298 2 0.0476916 0.242503 0.508927
306 2 0.240857 0.234564 0.7103
188 1 0.182472 0.119897 0.855397
249 1 0.0288314 0.162612 0.854302
47 1 0.110645 0.109853 0.992581
299 2 0.240141 0.116475 0.983127
10 1 0.220442 0.313949 0.0705602
85 1 0.163962 0.441248 0.146962
166 1 0.0175933 0.442575 0.227232
118 1 0.0709681 0.398255 0.0112958
354 2 0.0704166 0.33831 0.160586
193 1 0.155752 0.255474 0.204646
174 1 0.0617567 0.326351 0.30509
89 1 0.118321 0.338239 0.452906
72 1 0.212093 0.445004 0.371043
322 2 0.0477277 0.462868 0.353262
252 1 0.219534 0.292725 0.354744
292 2 0.186633 0.362805 0.255962
280 1 0.17021 0.322258 0.610911
341 2 0.222053 0.425792 0.683205
279 1 0.0271609 0.438379 0.544337
46 1 0.19486 0.461336 0.525542
69 1 0.0934802 0.427918 0.704645
158 1 0.0221563 0.295383 0.633241
65 1 0.159218 0.436289 0.899587
178 1 0.043217 0.350543 0.855127
31 1 0.167268 0.259998 0.927937
242 1 0.201816 0.344208 0.787584
173 1 0.0114742 0.616161 0.207928
30 1 0.0415351 0.652823 0.047856
129 1 0.247879 0.734627 0.175141
125 1 0.167604 0.615128 0.153365
62 1 0.183164 0.716363 0.00418181
145 1 0.155506 0.54089 0.0159394
77 1 0.00280312 0.510657 0.0865146
330 2 0.119284 0.678732 0.242517
253 1 0.131842 0.693093 0.38134
76 1 0.0879678 0.553069 0.456691
276 1 0.12904 0.561212 0.299902
212 1 0.235861 0.593731 0.444748
140 1 0.110276 0.552478 0.611571
71 1 0.145764 0.68917 0.539574
168 1 0.215967 0.703613 0.671954
94 1 0.0751491 0.657312 0.719225
351 2 0.0199132 0.635033 0.578786
352 2 0.236612 0.590546 0.608389
221 1 0.196217 0.558034 0.733578
29 1 0.0225631 0.519935 0.92083
241 1 0.118046 0.623477 0.878569
333 2 0.0573071 0.532346 0.780286
329 2 0.0642407 0.743927 0.961978
16 1 0.215228 0.883645 0.206442
238 1 0.0331704 0.912616 0.170798
73 1 0.171252 0.993532 0.088347
271 1 0.105086 0.774262 0.13581
139 1 0.00374451 0.989197 0.0111078
267 1 0.113597 0.823714 0.46165
35 1 0.0913232 0.819525 0.288006
66 1 0.0587247 0.942714 0.374753
218 1 0.232444 0.888514 0.352436
300 2 0.214358 0.772396 0.296636
358 2 0.134484 0.94952 0.484199
164 1 0.027049 0.918529 0.570099
93 1 0.158277 0.838841 0.607864
67 1 0.0311141 0.767874 0.608562
111 1 0.159594 0.998052 0.613638
301 2 0.119626 0.783848 0.718249
231 1 0.0809925 0.909178 0.713908
266 1 0.242069 0.848519 0.741908
318 2 0.246671 0.767469 0.559182
137 1 0.128724 0.782865 0.848999
110 1 0.211514 0.988141 0.772796
349 2 0.176319 0.899557 0.858554
102 1 0.0768238 0.995374 0.871523
83 1 0.117699 0.862987 0.996648
127 1 0.245773 0.978512 0.949818
197 1 0.372229 0.182946 0.125844
359 2 0.434255 0.0582209 0.121505
227 1 0.309953 0.0161557 0.150867
195 1 0.472876 0.237275 0.0170472
342 2 0.277234 0.231757 0.202019
286 1 0.365181 0.0751347 0.00774619
277 1 0.465807 0.146651 0.38206
70 1 0.310605 0.174067 0.408505
107 1 0.378299 0.246336 0.294858
134 1 0.349042 0.0273333 0.38286
117 1 0.256427 0.121591 0.259273
316 2 0.270906 0.00288979 0.281206
114 1 0.413082 0.0946041 0.251667
262 1 0.380678 0.168854 0.697256
232 1 0.415295 0.140718 0.534538
50 1 0.442835 0.0243375 0.726181
159 1 0.274665 0.203217 0.579476
43 1 0.259893 0.0625977 0.526575
19 1 0.452246 0.162022 0.897286
115 1 0.324873 0.0680601 0.849397
287 1 0.321348 0.221671 0.986299
278 1 0.302603 0.221967 0.839801
320 2 0.48551 0.174048 0.764642
283 1 0.461184 0.308186 0.158187
215 1 0.284244 0.452707 0.0395973
355 2 0.419949 0.406474 0.239747
120 1 0.299135 0.372763 0.18443
336 2 0.353158 0.312684 0.073411
64 1 0.414997 0.474395 0.126506
273 1 0.441561 0.380147 0.0102253
20 1 0.426266 0.282668 0.448254
304 2 0.458916 0.412926 0.417347
234 1 0.342034 0.386282 0.336354
61 1 0.351778 0.489705 0.459667
196 1 0.282495 0.345263 0.494682
132 1 0.327029 0.330577 0.670048
163 1 0.316892 0.480037 0.612894
199 1 0.46654 0.410733 0.549207
353 2 0.404012 0.263113 0.570697
130 1 0.45058 0.452454 0.697788
106 1 0.315206 0.366261 0.900138
27 1 0.43816 0.296865 0.775758
326 2 0.427569 0.284341 0.904484
224 1 0.312549 0.458837 0.775095
123 1 0.403096 0.643089 0.198374
55 1 0.296282 0.600603 0.0750539
243 1 0.47774 0.61828 0.0473607
40 1 0.277879 0.527789 0.224239
244 1 0.380137 0.741525 0.0825813
291 2 0.312598 0.536673 0.348021
217 1 0.380562 0.636485 0.397634
248 1 0.439503 0.511188 0.311291
272 1 0.491625 0.748095 0.353929
328 2 0.496607 0.617096 0.347667
155 1 0.265362 0.65125 0.298293
293 2 0.398229 0.748338 0.451941
264 1 0.335559 0.613456 0.689357
8 1 0.459665 0.582286 0.58351
78 1 0.330271 0.660365 0.54068
99 1 0.46427 0.712041 0.664627
181 1 0.352144 0.677361 0.942313
32 1 0.255247 0.693511 0.818269
270 1 0.41608 0.58179 0.819071
53 1 0.402444 0.524752 0.961314
104 1 0.257365 0.564848 0.893512
170 1 0.400183 0.737418 0.80493
260 1 0.499353 0.675981 0.909708
194 1 0.41681 0.908511 0.0961789
317 2 0.345131 0.821618 0.175177
258 1 0.276465 0.86724 0.0486754
190 1 0.467968 0.802007 0.208932
14 1 0.382224 0.869282 0.42071
51 1 0.38097 0.92561 0.252253
162 1 0.346443 0.774594 0.30443
305 2 0.481082 0.873823 0.314792
148 1 0.260029 0.761872 0.428055
96 1 0.315907 0.953846 0.662402
247 1 0.445987 0.853459 0.708197
246 1 0.374714 0.807966 0.567273
245 1 0.394585 0.976818 0.53187
60 1 0.254228 0.910335 0.515109
339 2 0.346898 0.762602 0.690422
38 1 0.41863 0.822974 0.951784
360 2 0.370867 0.948281 0.980295
311 2 0.476224 0.85754 0.840185
37 1 0.363538 0.908777 0.815777
261 1 0.265525 0.825147 0.910031
239 1 0.465531 0.991019 0.901066
225 1 0.521576 0.0515811 0.029826
21 1 0.673408 0.186825 0.105179
309 2 0.611327 0.0507703 0.137294
142 1 0.51975 0.154849 0.144085
288 1 0.738296 0.0426564 0.0493942
343 2 0.744243 0.214682 0.205925
334 2 0.592428 0.105372 0.390125
7 1 0.665914 0.00876481 0.387261
209 1 0.686125 0.155848 0.461991
101 1 0.626267 0.118718 0.256017
325 2 0.724826 0.150082 0.344805
4 1 0.595378 0.230143 0.357893
202 1 0.531441 0.0272201 0.489695
295 2 0.506627 0.197607 0.259303
18 1 0.533852 0.1193 0.646875
237 1 0.66663 0.040071 0.706064
42 1 0.669785 0.198039 0.626124
167 1 0.674353 0.0282494 0.554288
233 1 0.561949 0.213257 0.505447
1 1 0.597365 0.162103 0.958796
103 1 0.71218 0.132574 0.842307
88 1 0.55888 0.0762425 0.820783
12 1 0.600114 0.225524 0.762967
147 1 0.607075 0.265038 0.209538
294 2 0.692651 0.421932 0.0656335
154 1 0.594328 0.322635 0.0698693
5 1 0.57643 0.415779 0.19893
250 1 0.565214 0.482842 0.0424553
223 1 0.733616 0.341632 0.153576
207 1 0.603115 0.495805 0.320245
2 1 0.589083 0.371555 0.443179
303 2 0.635427 0.367591 0.306954
313 2 0.680789 0.294508 0.482205
265 1 0.501845 0.345218 0.315741
36 1 0.735885 0.284177 0.312124
160 1 0.671201 0.499594 0.461733
180 1 0.637145 0.356513 0.60023
345 2 0.583282 0.476529 0.549804
54 1 0.509852 0.264965 0.638982
172 1 0.652134 0.497559 0.657063
141 1 0.607651 0.372381 0.74396
161 1 0.506263 0.445315 0.860426
259 1 0.551117 0.301591 0.885846
184 1 0.661238 0.402903 0.93119
281 1 0.717041 0.281672 0.840666
324 2 0.671886 0.284771 0.971981
95 1 0.710904 0.542087 0.13815
91 1 0.624322 0.660414 0.0898064
157 1 0.533599 0.56656 0.198307
312 2 0.515595 0.69659 0.138775
185 1 0.748399 0.66527 0.0171556
144 1 0.616495 0.641188 0.403341
149 1 0.508477 0.535689 0.449278
302 2 0.734393 0.614969 0.447636
152 1 0.722929 0.593568 0.294118
284 1 0.731058 0.742786 0.363243
268 1 0.599768 0.70072 0.25846
105 1 0.682124 0.652876 0.714385
121 1 0.615118 0.607993 0.55921
189 1 0.680776 0.725392 0.505431
109 1 0.503325 0.707131 0.507392
256 1 0.529817 0.584317 0.724638
332 2 0.595769 0.722898 0.979327
39 1 0.683265 0.722277 0.875263
310 2 0.597262 0.626918 0.82528
122 1 0.620668 0.587821 0.948099
203 1 0.667714 0.502595 0.814436
34 1 0.530758 0.788564 0.0637022
257 1 0.611381 0.936207 0.070045
17 1 0.663137 0.814491 0.164985
68 1 0.665149 0.966819 0.226414
124 1 0.516077 0.990392 0.187605
251 1 0.691086 0.810517 0.0146983
315 2 0.502293 0.910285 0.00824
210 1 0.609747 0.852571 0.325127
290 2 0.591867 0.771385 0.420984
165 1 0.520544 0.851176 0.497278
200 1 0.660595 0.87291 0.486547
211 1 0.505522 0.997658 0.342503
128 1 0.589455 0.802756 0.642501
235 1 0.547347 0.955071 0.637509
208 1 0.737556 0.895154 0.72378
274 1 0.627536 0.996621 0.924819
214 1 0.5734 0.840748 0.923747
319 2 0.719992 0.935207 0.991695
213 1 0.579417 0.917093 0.78158
28 1 0.716868 0.871418 0.872509
176 1 0.561086 0.750394 0.787701
331 2 0.68823 0.785269 0.762267
350 2 0.689855 0.987699 0.817358
338 2 0.929186 0.107185 0.192955
183 1 0.769791 0.0819289 0.208923
33 1 0.854792 0.224973 0.113569
335 2 0.860055 0.0471964 0.00498948
75 1 0.947117 0.138231 0.0276589
92 1 0.891411 0.00541522 0.125544
254 1 0.828029 0.220905 0.444937
113 1 0.983783 0.0890005 0.311531
179 1 0.817456 0.0674874 0.385323
346 2 0.939642 0.119934 0.436105
58 1 0.866121 0.181029 0.28014
63 1 0.984095 0.226174 0.395921
220 1 0.807782 0.141349 0.584863
169 1 0.951359 0.150804 0.70259
240 1 0.787381 0.209132 0.719751
201 1 0.95052 0.166978 0.549948
222 1 0.906972 0.00925012 0.599174
138 1 0.819116 0.0497802 0.747741
337 2 0.792266 0.0252581 0.501252
87 1 0.780498 0.00242598 0.901719
171 1 0.929152 0.0431239 0.893936
229 1 0.863934 0.177688 0.847873
82 1 0.766636 0.188001 0.989805
285 1 0.848443 0.455883 0.111112
49 1 0.956474 0.344202 0.0941371
81 1 0.901407 0.313774 0.228588
57 1 0.775626 0.380613 0.421757
357 2 0.873873 0.29428 0.36585
216 1 0.935996 0.405738 0.358209
356 2 0.877129 0.441071 0.496091
41 1 0.754671 0.442369 0.267335
97 1 0.7696 0.453523 0.564907
219 1 0.896246 0.406811 0.640218
52 1 0.773633 0.298987 0.569733
108 1 0.762224 0.365398 0.706845
307 2 0.887911 0.265327 0.644165
151 1 0.932937 0.323884 0.512374
25 1 0.91436 0.433796 0.958052
296 2 0.845453 0.312035 0.881128
136 1 0.801763 0.431723 0.852335
56 1 0.947838 0.463977 0.791512
80 1 0.918711 0.289913 0.772688
59 1 0.944179 0.268058 0.954219
226 1 0.791795 0.338661 0.989813
323 2 0.929972 0.710143 0.027915
297 2 0.806847 0.574666 0.0762461
6 1 0.885092 0.65205 0.127913
156 1 0.876414 0.534346 0.234016
44 1 0.7507 0.695363 0.190373
182 1 0.844664 0.679004 0.463172
146 1 0.862678 0.680566 0.299662
26 1 0.96614 0.575006 0.358721
3 1 0.821626 0.531002 0.405059
143 1 0.994684 0.707094 0.461024
344 2 0.988315 0.711395 0.324282
263 1 0.901044 0.688179 0.611305
308 2 0.81079 0.658631 0.694355
205 1 0.96907 0.534725 0.661111
230 1 0.797446 0.529071 0.720921
187 1 0.759826 0.610406 0.578193
133 1 0.924812 0.558696 0.514744
86 1 0.780593 0.600952 0.86565
347 2 0.910437 0.553167 0.872065
79 1 0.91479 0.627746 0.763729
24 1 0.892668 0.593345 0.988798
275 1 0.760578 0.501931 0.985976
236 1 0.974718 0.688078 0.891542
84 1 0.952169 0.778644 0.217556
289 2 0.893725 0.880652 0.158477
98 1 0.826625 0.79393 0.0917991
191 1 0.768666 0.923297 0.123361
15 1 0.976074 0.825799 0.0531921
100 1 0.779209 0.904587 0.401574
282 1 0.912044 0.816816 0.363215
204 1 0.920515 0.966591 0.44781
340 2 0.767897 0.799788 0.476228
348 2 0.788201 0.979797 0.285014
119 1 0.919108 0.936692 0.276444
177 1 0.795598 0.847406 0.259414
321 2 0.991479 0.83547 0.451572
22 1 0.890287 0.86224 0.673109
90 1 0.759056 0.773191 0.63783
192 1 0.890817 0.821947 0.523083
9 1 0.779426 0.920264 0.574044
74 1 0.862023 0.894072 0.819097
269 1 0.990129 0.870608 0.899884
228 1 0.835534 0.767041 0.936277
150 1 0.864728 0.915553 0.98399
13 1 0.986916 0.784251 0.767191
131 1 0.80595 0.752099 0.790336
48 1 0.964731 0.995799 0.759573
ITEM: TIMESTEP
3000000
ITEM: NUMBER OF ATOMS
360
ITEM: BOX BOUNDS pp pp pp
0.0000000000000000e+00 6.6943295008216896e+00
0.0000000000000000e+00 6.6943295008216896e+00
0.0000000000000000e+00 6.6943295008216896e+00
ITEM: ATOMS id type xs ys zs
238 1 0.0919917 0.235655 0.221232
201 1 0.16836 0.210477 0.0925428
117 1 0.139604 0.0635907 0.145196
73 1 0.0233341 0.178773 0.055121
158 1 0.00219835 0.0245242 0.0430601
330 2 0.124076 -0.0123238 -0.005508
289 2 0.142633 0.112493 0.276728
66 1 0.0116126 0.137249 0.320297
164 1 0.18415 0.131486 0.391178
7 1 0.0664748 0.11145 0.489386
217 1 0.240222 0.0201241 0.287202
320 2 0.21972 0.245484 0.324259
93 1 0.0918496 -0.00967734 0.359034
239 1 0.0770169 0.177539 0.656877
163 1 0.193704 0.179261 0.548184
104 1 0.219322 0.175111 0.708461
43 1 0.145176 0.0101829 0.753073
266 1 0.0728437 0.00409218 0.605396
137 1 0.107946 0.15713 0.813585
128 1 0.0607988 0.0269998 0.888413
38 1 0.166055 0.108916 0.96559
275 1 0.0417952 0.33281 0.114521
173 1 0.179095 0.371991 0.0506056
19 1 0.233231 0.306535 0.202578
226 1 0.0471745 0.454615 0.0182374
253 1 0.162545 0.477789 0.171502
197 1 0.00596482 0.492961 0.148361
216 1 0.0891557 0.47404 0.3884
9 1 0.205544 0.369313 0.342825
174 1 0.0986461 0.250033 0.376591
188 1 0.066604 0.384063 0.257674
106 1 0.0720083 0.452643 0.692353
71 1 0.100051 0.431623 0.545954
61 1 0.145902 0.318476 0.657118
152 1 0.0603673 0.266228 0.535853
186 1 0.204484 0.33081 0.506026
140 1 0.0272234 0.304188 0.790869
40 1 0.199645 0.289482 0.827021
75 1 0.11023 0.253926 0.943399
223 1 0.107348 0.426309 0.889419
69 1 0.205377 0.443865 0.770246
269 1 0.165854 0.626811 0.207895
6 1 0.0629663 0.61936 0.067734
271 1 0.183787 0.716454 0.0653859
41 1 0.00371319 0.64029 0.218686
234 1 0.220951 0.551265 0.331444
276 1 0.0809962 0.636896 0.346592
337 2 0.211514 0.68064 0.313434
198 1 0.206241 0.722007 0.434844
335 2 0.0903695 0.53956 0.266056
13 1 0.036155 0.692225 0.493923
55 1 0.176137 0.71502 0.583948
148 1 0.172678 0.569196 0.65518
155 1 0.0529425 0.678768 0.675952
67 1 0.151416 0.584337 0.493371
141 1 0.0211838 0.566372 0.586609
145 1 0.108602 0.568795 0.800056
265 1 0.158299 0.672166 0.913795
161 1 0.250777 0.563125 0.868649
146 1 0.0257901 0.574577 0.920687
85 1 0.0168412 0.709884 0.828259
322 2 0.236236 0.683733 0.80235
64 1 0.177723 0.540616 1.00892
135 1 0.140458 0.924773 0.218032
344 2 0.218721 0.827433 0.125703
35 1 0.115919 0.876585 0.0663558
261 1 0.0845085 0.770672 0.186145
124 1 0.232682 0.97061 0.060478
190 1 0.233979 0.785896 0.252355
300 2 0.0174867 0.882114 0.255116
70 1 0.0567182 0.871485 0.482129
162 1 0.187301 0.861681 0.376579
84 1 0.0553952 0.787665 0.336975
50 1 0.180535 0.999161 0.491966
258 1 0.197943 0.898563 0.651142
169 1 0.0571999 0.81911 0.626612
110 1 0.124434 0.822931 0.893227
331 2 0.172539 0.889534 0.784623
39 1 0.209191 0.967224 0.898236
62 1 0.0364898 0.749239 0.994082
111 1 0.044106 0.879721 0.758401
74 1 -0.00425441 0.905207 0.936112
246 1 0.156839 0.764789 0.748674
46 1 0.381017 0.0561848 0.203489
210 1 0.285235 0.128807 0.0653458
14 1 0.490132 0.0995032 0.0970898
301 2 0.261612 0.0381235 0.163567
244 1 0.376931 -3.89786e-05 0.0592094
196 1 0.448562 0.237778 0.0166256
112 1 0.26214 0.164694 0.228259
68 1 0.38619 0.240648 0.156556
245 1 0.3649 0.10422 0.348938
341 2 0.278126 0.081342 0.467877
17 1 0.479955 0.192731 0.278772
159 1 0.300847 0.225647 0.450895
171 1 0.451716 0.198892 0.444674
89 1 0.411865 0.0212071 0.653425
354 2 0.350346 0.107581 0.726617
252 1 0.355388 0.183082 0.618896
348 2 0.466959 0.126322 0.575075
277 1 0.261956 0.0537445 0.617042
54 1 0.3934 0.0626569 0.505771
130 1 0.456739 0.0480097 0.806689
227 1 0.375439 0.139815 0.93263
358 2 0.285921 0.0582135 0.960461
273 1 0.263983 0.106301 0.838605
295 2 0.317531 0.226556 0.792356
31 1 0.432899 0.212237 0.75878
132 1 0.263424 0.252013 0.968038
303 2 0.497746 0.161628 0.866517
83 1 0.339502 0.400413 0.155398
16 1 0.46878 0.371828 0.237469
172 1 0.374871 0.368445 0.00811903
299 2 0.273707 0.470723 0.066373
294 2 0.459289 0.34895 0.110775
149 1 0.483955 0.480602 0.085892
314 2 0.294744 0.286265 0.0857785
125 1 0.330939 0.442498 0.316961
262 1 0.444771 0.366133 0.422688
114 1 0.338769 0.290181 0.321181
318 2 0.311062 0.363733 0.423074
80 1 0.256175 0.473734 0.465722
360 2 0.480418 0.413775 0.559878
212 1 0.313327 0.322951 0.713777
72 1 0.386435 0.456917 0.675192
153 1 0.358632 0.34096 0.556732
90 1 0.492224 0.266995 0.620092
351 2 0.256715 0.273025 0.604509
221 1 0.237375 0.435046 0.621708
195 1 0.368674 0.462818 0.826337
115 1 0.369773 0.302964 0.874207
220 1 0.261567 0.407199 0.923704
37 1 0.491538 0.425062 0.91957
215 1 0.489563 0.361586 0.761035
255 1 0.287202 0.600552 0.0902609
346 2 0.433589 0.668628 0.181059
243 1 0.434123 0.640026 0.0437254
107 1 0.398036 0.542029 0.192362
312 2 0.278014 0.503456 0.216117
129 1 0.344291 0.750972 0.108449
76 1 0.320288 0.630614 0.419202
339 2 0.417502 0.701775 0.377576
142 1 0.445696 0.53441 0.349037
267 1 0.330403 0.650707 0.267487
165 1 0.451349 0.596781 0.619619
8 1 0.299661 0.597657 0.565198
256 1 0.318672 0.592286 0.736358
168 1 0.283566 0.725013 0.684249
305 2 0.450525 0.547098 0.742731
78 1 0.416422 0.742012 0.509189
199 1 0.39675 0.496086 0.504231
307 2 0.29584 0.729986 0.530299
53 1 0.316395 0.700151 0.94968
250 1 0.493975 0.75119 0.917927
242 1 0.393145 0.723655 0.798121
170 1 0.438463 0.589463 0.864987
249 1 0.363971 0.518248 0.981729
183 1 0.320812 0.905607 0.177905
59 1 0.412956 0.862308 0.0274434
181 1 0.499321 0.768651 0.141042
202 1 0.489992 0.925126 0.14389
296 2 0.500247 0.953672 0.0238134
192 1 0.500436 0.820533 0.392766
325 2 0.2978 0.894048 0.30239
96 1 0.322555 0.968084 0.408764
45 1 0.429471 0.934036 0.306706
133 1 0.331739 0.798988 0.391753
185 1 0.404745 0.786833 0.259535
345 2 0.32245 0.964067 0.547281
176 1 0.349341 0.859986 0.63135
156 1 0.252927 0.862812 0.512315
99 1 0.459984 0.755791 0.658205
123 1 0.43343 0.909124 0.496126
278 1 0.298676 0.972284 0.755908
264 1 0.36524 0.966636 0.910971
356 2 0.379589 0.816811 0.900516
175 1 0.423885 0.890828 0.772267
23 1 0.281964 0.827427 0.823626
134 1 0.269007 0.838287 0.99137
304 2 0.629969 0.109314 0.130741
98 1 0.550697 0.0510325 0.222107
259 1 0.609056 -0.00966942 0.085829
257 1 0.703024 0.0427672 0.221234
283 1 0.68872 0.249286 0.121354
191 1 0.741067 0.0734447 0.0750455
274 1 0.598881 0.176054 0.0168581
225 1 0.639707 0.182727 0.247699
280 1 0.5972 0.171843 0.394334
103 1 0.655263 0.0260796 0.449158
316 2 0.628534 0.0659417 0.326695
11 1 0.503472 0.0414214 0.407469
329 2 0.67306 0.0850344 0.601936
138 1 0.592912 0.168264 0.544104
219 1 0.702282 0.149705 0.727779
109 1 0.534719 0.0207613 0.559219
287 1 0.524297 0.124898 0.682175
144 1 0.745254 0.141929 0.51664
214 1 0.636272 0.0150319 0.713157
315 2 0.652464 0.070024 0.977122
108 1 0.631051 0.144988 0.868222
34 1 0.51782 0.0586449 0.945779
101 1 0.638716 0.372371 0.195796
233 1 0.64243 0.494541 0.090872
21 1 0.57401 0.345495 0.0464701
1 1 0.74321 0.358375 0.031104
118 1 0.537872 0.237306 0.148446
182 1 0.680956 0.41936 0.394388
317 2 0.553197 0.448624 0.326143
126 1 0.570019 0.314607 0.33585
179 1 0.738105 0.312021 0.304548
12 1 0.557092 0.488023 0.488808
211 1 0.709815 0.287994 0.45189
121 1 0.554716 0.478985 0.649152
178 1 0.689713 0.27496 0.603447
254 1 0.674476 0.440071 0.565751
333 2 0.587853 0.357009 0.65507
184 1 0.679002 0.391422 0.73106
57 1 0.570959 0.32662 0.507175
154 1 0.598543 0.263333 0.744372
131 1 0.730571 0.303688 0.8466
230 1 0.544639 0.277216 0.892296
332 2 0.594735 0.374924 0.827178
10 1 0.656983 0.439291 0.914926
343 2 0.653832 0.29241 0.953812
326 2 0.715191 0.484009 0.809998
100 1 0.569429 0.51316 0.805433
248 1 0.571888 0.631985 0.128644
319 2 0.556666 0.717625 0.0286968
36 1 0.543855 0.52901 0.235226
207 1 0.683679 0.657964 0.229725
323 2 0.683554 0.609279 0.0105354
4 1 0.680588 0.738242 0.0909435
81 1 0.704924 0.500299 0.246669
203 1 0.61517 0.569272 0.361643
91 1 0.642372 0.703001 0.464441
3 1 0.721708 0.561958 0.475221
160 1 0.517577 0.67921 0.293219
272 1 0.501733 0.628632 0.457874
189 1 0.612927 0.598647 0.579657
270 1 0.543009 0.64876 0.726945
350 2 0.523345 0.689506 0.570658
79 1 0.698943 0.574967 0.713575
342 2 0.72903 0.638835 0.593909
105 1 0.627113 0.750869 0.64443
290 2 0.557168 0.653064 0.856856
235 1 0.648152 0.724088 0.941812
27 1 0.566667 0.573931 0.968439
224 1 0.688569 0.59231 0.872343
86 1 0.700269 0.717503 0.79163
286 1 0.672857 0.879015 0.186324
194 1 0.57958 0.841272 0.0327511
236 1 0.708418 0.915554 -0.000911248
321 2 0.60631 0.74377 0.190485
139 1 0.685309 0.858916 0.456029
51 1 0.587987 0.931166 0.336
251 1 0.634378 0.786559 0.3251
327 2 0.571434 0.929931 0.474099
357 2 0.539963 0.842308 0.241049
58 1 0.754028 0.940137 0.335035
268 1 0.553601 0.813539 0.533861
232 1 0.684514 0.940951 0.579066
200 1 0.543561 0.904408 0.665311
237 1 0.691958 0.86757 0.719994
22 1 0.755122 0.771419 0.556785
311 2 0.63404 0.848061 0.908757
247 1 0.655234 0.974462 0.862761
260 1 0.566766 0.794946 0.780251
292 2 0.547437 0.948301 0.792494
213 1 0.515036 0.904819 0.900416
102 1 0.87366 0.0741736 0.165611
309 2 0.817057 0.182156 0.0989756
285 1 0.791828 0.182855 0.227235
92 1 0.940848 0.248562 0.204071
47 1 1.00759 0.0177027 0.232642
297 2 1.00242 0.13002 0.176958
119 1 0.890632 0.126689 0.465423
42 1 0.875959 0.0483196 0.321806
310 2 0.977386 0.0316998 0.435642
349 2 0.979288 0.22013 0.433926
113 1 0.874401 0.220605 0.348337
18 1 0.738663 0.13132 0.363358
240 1 0.797674 0.0545961 0.633124
63 1 0.948082 0.110694 0.597774
281 1 0.841442 0.211835 0.637106
298 2 0.843938 0.0879871 0.74454
127 1 0.947367 0.158987 0.745931
231 1 0.902977 0.0449548 0.855654
88 1 0.768425 0.0477159 0.925864
25 1 0.969223 0.192548 0.903973
5 1 0.819907 0.185012 0.832427
147 1 0.752596 0.208003 0.968844
33 1 0.885002 0.115572 1.01082
122 1 0.811509 0.334861 0.168889
291 2 0.949586 0.381891 0.190345
120 1 0.888888 0.428632 0.0640716
206 1 0.900178 0.27418 0.044919
353 2 0.753637 0.445918 0.126825
116 1 0.849066 0.490243 0.189945
143 1 0.886762 0.367892 0.304364
77 1 0.82012 0.430946 0.477381
338 2 0.98891 0.270748 0.30894
193 1 0.990352 0.356535 0.43197
82 1 0.968862 0.504624 0.295679
302 2 0.953114 0.494494 0.661539
205 1 0.807515 0.3689 0.625364
229 1 0.970372 0.29583 0.653645
65 1 0.9449 0.414886 0.566971
279 1 0.877325 0.27696 0.508799
306 2 0.756137 0.289865 0.716271
48 1 0.873039 0.332556 0.764727
32 1 0.836338 0.408511 0.906994
29 1 0.969312 0.461694 0.802687
347 2 0.849844 0.275928 0.915605
87 1 0.975749 0.355078 0.934927
355 2 0.93734 0.47443 0.941343
136 1 0.829019 0.472993 0.751573
150 1 0.848941 0.627359 0.24684
352 2 0.794556 0.719132 0.151463
24 1 0.913708 0.572584 0.0392169
95 1 0.914134 0.709053 0.098678
180 1 0.762237 0.601119 0.109059
166 1 0.932821 0.680913 0.366388
97 1 0.81791 0.517398 0.347223
26 1 0.951992 0.533989 0.451519
2 1 0.751884 0.673273 0.363858
241 1 0.838112 0.659896 0.505139
308 2 0.927593 0.682443 0.594222
177 1 0.803039 0.688958 0.680678
282 1 0.818088 0.546964 0.616286
56 1 0.931764 0.600557 0.739342
187 1 0.872302 0.562307 0.882407
340 2 0.934532 0.675339 0.941955
94 1 0.866561 0.726893 0.845327
324 2 0.807026 0.611525 0.792375
157 1 0.770475 0.520517 0.986661
30 1 0.799829 0.675317 0.976619
44 1 0.966449 0.873109 0.103725
151 1 0.798742 0.834095 0.108872
49 1 0.860222 0.927244 0.223251
15 1 0.854968 0.960346 0.0463857
204 1 0.924354 0.78759 0.231768
313 2 0.756267 0.959835 0.131099
209 1 0.826983 0.805651 0.414386
218 1 0.951666 0.908688 0.368035
328 2 0.957027 0.789226 0.448211
20 1 0.815854 0.947115 0.466352
288 1 0.770767 0.781591 0.261057
334 2 0.950034 0.879524 0.652498
52 1 0.822656 0.905708 0.653424
284 1 0.906534 0.80401 0.565457
167 1 0.943675 0.961502 0.545038
60 1 0.922012 0.777684 0.709832
222 1 0.93604 1.00002 0.712401
263 1 0.894662 0.88164 0.808927
359 2 0.835039 0.939131 0.915828
228 1 0.877252 0.806886 0.978478
208 1 0.780742 0.987437 0.785772
28 1 0.755718 0.844251 0.87619
336 2 0.745716 0.787725 0.999522
293 2 0.803213 0.795776 0.759701
ITEM: TIMESTEP
6000000
ITEM: NUMBER OF ATOMS
360
ITEM: BOX BOUNDS pp pp pp
0.0000000000000000e+00 6.6943295008216896e+00
0.0000000000000000e+00 6.6943295008216896e+00
0.0000000000000000e+00 6.6943295008216896e+00
ITEM: ATOMS id type xs ys zs
147 1 0.0504721 0.200071 0.168552
35 1 0.0843041 0.0602821 0.0857314
73 1 0.2191 0.140638 0.0961393
92 1 0.138371 0.0782332 0.232938
205 1 0.0706605 0.213313 0.0058606
310 2 0.0532755 0.139619 0.294526
93 1 0.193839 0.105346 0.378035
216 1 0.06893 0.189242 0.438879
229 1 0.159845 0.239264 0.306673
143 1 0.0546628 0.0160297 0.357129
338 2 0.185621 0.143467 0.504738
104 1 0.0981405 0.224047 0.582108
152 1 0.192902 0.100734 0.62272
163 1 0.0314186 0.110171 0.654903
9 1 0.098058 0.0475701 0.517889
215 1 0.222189 0.249971 0.710154
337 2 0.240696 0.00750678 0.708468
102 1 0.152337 0.0960899 0.934508
330 2 0.024519 0.0776869 0.970383
212 1 0.0346358 0.160223 0.859023
128 1 0.158198 0.103725 0.765828
137 1 0.174764 0.242481 0.863979
227 1 0.237784 0.386886 0.175299
132 1 0.188284 0.303925 0.0292042
87 1 0.0545872 0.34716 0.0975464
290 2 0.168861 0.258317 0.138206
242 1 0.184239 0.475916 0.0450549
312 2 0.185363 0.483242 0.286962
61 1 0.0501045 0.356718 0.484251
172 1 0.0798045 0.471715 0.367521
193 1 0.194025 0.280687 0.461862
345 2 0.17546 0.413553 0.463927
238 1 0.242013 0.366188 0.344757
188 1 0.0957165 0.364294 0.240166
140 1 0.166961 0.352871 0.611931
148 1 0.0697313 0.251162 0.724268
75 1 0.23233 0.48827 0.665203
153 1 0.106566 0.404105 0.756486
195 1 0.164652 0.413281 0.910558
226 1 0.0390369 0.329527 0.910066
168 1 0.0167134 0.476318 0.982905
301 2 0.0688517 0.483648 0.863828
300 2 0.101792 0.572363 0.0705933
234 1 0.100907 0.688525 0.157451
209 1 0.145525 0.531542 0.175272
23 1 0.214373 0.630186 0.050181
64 1 0.0153556 0.668808 0.00376197
355 2 0.0914659 0.725751 0.381766
55 1 0.0409022 0.621899 0.427495
41 1 0.144804 0.61294 0.315046
351 2 0.0399614 0.569102 0.250878
165 1 0.182569 0.637135 0.483948
8 1 0.00980943 0.705571 0.273392
72 1 0.239972 0.518454 0.402984
110 1 0.144175 0.630314 0.640282
65 1 0.0714543 0.732969 0.544083
39 1 0.0104875 0.714049 0.710232
317 2 0.226461 0.736246 0.56978
271 1 0.119545 0.50134 0.546468
314 2 0.0887336 0.523971 0.676542
255 1 0.116764 0.577991 0.934799
161 1 0.172874 0.557293 0.789496
261 1 0.122397 0.695826 0.813879
223 1 0.0168823 0.571034 0.774503
313 2 0.059373 0.801415 0.193699
213 1 0.202102 0.792411 0.115904
134 1 0.0515453 0.940454 0.213354
322 2 0.135078 0.908087 0.127247
236 1 0.026437 0.816281 0.0776295
253 1 0.143429 0.937267 0.00312214
31 1 0.234824 0.996849 0.125768
96 1 0.190036 0.952996 0.424567
47 1 0.0633578 0.860263 0.364412
133 1 0.180982 0.790243 0.450963
124 1 0.170156 0.789108 0.26876
206 1 0.214858 0.948705 0.269067
284 1 0.0925342 0.891578 0.525385
60 1 0.16249 0.780129 0.670032
111 1 0.128872 0.954923 0.666834
70 1 0.257169 0.863961 0.558394
359 2 0.212773 0.986656 0.544469
167 1 0.00820737 0.85612 0.649081
151 1 0.0202148 0.843325 0.925526
246 1 0.110188 0.862165 0.792754
44 1 0.229337 0.822391 0.880569
273 1 0.220789 0.968936 0.856243
158 1 0.0578845 0.988959 0.87915
264 1 0.136187 0.763278 0.978321
10 1 0.376319 0.154784 0.10615
324 2 0.436279 0.059488 0.242532
217 1 0.306508 0.0771198 0.250235
37 1 0.291069 0.228963 0.203698
245 1 0.407927 0.0803362 0.365882
125 1 0.309707 0.219767 0.366107
344 2 0.290414 0.0157462 0.367169
112 1 0.29978 0.077057 0.481219
174 1 0.435179 0.182771 0.257824
214 1 0.406431 0.193721 0.492048
145 1 0.417347 0.221113 0.648035
175 1 0.439718 0.0687439 0.685239
358 2 0.348847 0.122437 0.603934
258 1 0.462988 0.0391534 0.511453
186 1 0.305215 0.121175 0.734519
117 1 0.289005 0.234997 0.569618
220 1 0.38327 0.112776 0.876798
287 1 0.482535 0.0784418 0.991398
302 2 0.443488 0.182873 0.773555
131 1 0.289995 0.200186 0.966104
38 1 0.300222 0.040598 0.992721
334 2 0.252741 0.142904 0.851811
249 1 0.318277 0.391594 0.0325496
340 2 0.356021 0.42415 0.151386
27 1 0.469359 0.437012 0.0663426
323 2 0.308427 0.278234 0.0831522
21 1 0.418194 0.308536 0.129473
126 1 0.457773 0.484285 0.202538
83 1 0.383348 0.425981 0.401696
114 1 0.466688 0.29078 0.385329
295 2 0.325206 0.309893 0.447823
250 1 0.382378 0.346778 0.268973
335 2 0.485624 0.417922 0.316128
342 2 0.453389 0.484711 0.477733
164 1 0.349117 0.361468 0.666514
80 1 0.281102 0.406495 0.538227
277 1 0.435208 0.350587 0.540414
303 2 0.474094 0.399099 0.652545
69 1 0.389111 0.418594 0.891611
298 2 0.278504 0.329829 0.926793
159 1 0.408377 0.287522 0.979657
121 1 0.4766 0.323474 0.770213
221 1 0.332764 0.258864 0.829044
233 1 0.486809 0.48237 0.774979
89 1 0.256073 0.387849 0.790965
309 2 0.417722 0.597426 0.129914
129 1 0.349395 0.733737 0.120331
99 1 0.311143 0.531252 0.122752
346 2 0.265205 0.744428 0.0264546
244 1 0.254057 0.654865 0.204969
170 1 0.392985 0.611258 0.00520437
199 1 0.367586 0.582314 0.466281
272 1 0.301149 0.66073 0.366605
176 1 0.455827 0.71042 0.395258
142 1 0.476863 0.553958 0.354564
267 1 0.31183 0.510883 0.270517
149 1 0.404703 0.641873 0.245605
327 2 0.424108 0.656264 0.570558
94 1 0.453209 0.614407 0.702184
56 1 0.298817 0.625275 0.607457
332 2 0.25728 0.531932 0.52267
155 1 0.339669 0.753732 0.492176
16 1 0.392512 0.502636 0.603778
224 1 0.410994 0.651155 0.853124
230 1 0.499545 0.524615 0.924207
90 1 0.27799 0.521578 0.923259
189 1 0.334852 0.529261 0.770661
146 1 0.271037 0.681636 0.752618
79 1 0.265644 0.674534 0.912587
185 1 0.449813 0.854801 0.0722657
84 1 0.314498 0.873834 0.176889
202 1 0.288709 0.877056 0.0152145
183 1 0.398194 0.984431 0.107415
156 1 0.33752 0.92736 0.455658
162 1 0.295341 0.812249 0.354477
45 1 0.393164 0.935718 0.303596
348 2 0.410149 0.829028 0.41015
305 2 0.469824 0.970556 0.40211
190 1 0.427159 0.795644 0.251468
200 1 0.438918 0.901577 0.676075
270 1 0.371736 0.759072 0.649529
329 2 0.382872 0.865767 0.56603
109 1 0.488068 0.886591 0.496183
7 1 0.324601 0.990299 0.605987
278 1 0.252219 0.872263 0.739251