ITEM: TIMESTEP
100000
ITEM: NUMBER OF ATOMS
400
ITEM: BOX BOUNDS pp pp pp
0.0000000000000000e+00 2.3904572186687872e+01
0.0000000000000000e+00 2.3904572186687872e+01
-5.9761430466719678e-01 5.9761430466719678e-01
ITEM: ATOMS id type xs ys zs
242 1 0.0102891 0.0134558 0.5
278 1 0.0506381 0.0304186 0.5
368 1 0.105224 0.0247995 0.5
180 1 0.0378729 0.0807542 0.5
322 1 0.11556 0.0746888 0.5
227 1 0.0770844 0.110656 0.5
17 1 0.0180908 0.158683 0.5
311 1 0.0659774 0.163277 0.5
256 1 0.0225326 0.205321 0.5
181 1 0.0845722 0.204103 0.5
382 1 0.0691 0.244413 0.5
33 1 0.0278657 0.254806 0.5
192 1 0.108612 0.258469 0.5
244 1 0.0139534 0.293164 0.5
92 1 0.0728433 0.303709 0.5
94 1 0.0296159 0.336651 0.5
279 1 0.104712 0.370175 0.5
89 1 0.0519129 0.384637 0.5
342 1 0.00818338 0.409081 0.5
179 1 0.093554 0.417398 0.5
25 1 0.0330872 0.448012 0.5
132 1 0.0732771 0.455288 0.5
291 1 0.0180587 0.496842 0.5
220 1 0.114988 0.490637 0.5
245 1 0.0592413 0.512199 0.5
205 1 0.0958997 0.530527 0.5
222 1 0.000376898 0.558616 0.5
31 1 0.0549737 0.555511 0.5
230 1 0.054598 0.616692 0.5
81 1 0.0229953 0.6457 0.5
240 1 0.0637853 0.655548 0.5
257 1 0.104585 0.640151 0.5
320 1 0.026031 0.717752 0.5
45 1 0.0677205 0.702742 0.5
253 1 0.0901385 0.742476 0.5
229 1 0.0579902 0.770856 0.5
379 1 0.0906358 0.801477 0.5
398 1 0.00359859 0.833957 0.5
284 1 0.0459178 0.822706 0.5
333 1 0.0759131 0.861266 0.5
289 1 0.0651975 0.900089 0.5
34 1 0.112935 0.886041 0.5
209 1 0.0281643 0.943574 0.5
42 1 0.122307 0.943741 0.5
191 1 0.0512458 0.976042 0.5
287 1 0.0916692 0.978753 0.5
239 1 0.219702 0.0103843 0.5
247 1 0.159192 0.0400693 0.5
385 1 0.204638 0.0711729 0.5
60 1 0.144596 0.103796 0.5
103 1 0.210559 0.112896 0.5
188 1 0.125523 0.143822 0.5
184 1 0.175211 0.137009 0.5
157 1 0.22689 0.150239 0.5
301 1 0.127207 0.184269 0.5
170 1 0.171846 0.1808 0.5
397 1 0.216053 0.18958 0.5
343 1 0.147139 0.232225 0.5
369 1 0.191707 0.236207 0.5
359 1 0.171876 0.2789 0.5
265 1 0.228908 0.272808 0.5
321 1 0.132593 0.293285 0.5
12 1 0.198149 0.311835 0.5
133 1 0.160366 0.361017 0.5
123 1 0.206278 0.358928 0.5
347 1 0.149689 0.404433 0.5
313 1 0.175262 0.435484 0.5
113 1 0.207388 0.40651 0.5
69 1 0.126167 0.441701 0.5
269 1 0.240563 0.437903 0.5
54 1 0.152708 0.471983 0.5
36 1 0.21023 0.472454 0.5
48 1 0.145246 0.5172 0.5
78 1 0.195396 0.509157 0.5
40 1 0.179617 0.562407 0.5
221 1 0.240824 0.546581 0.5
361 1 0.128253 0.576052 0.5
197 1 0.232528 0.589916 0.5
58 1 0.150681 0.611267 0.5
348 1 0.190876 0.603551 0.5
308 1 0.218033 0.648822 0.5
302 1 0.140277 0.677213 0.5
386 1 0.177942 0.657323 0.5
98 1 0.21228 0.690763 0.5
295 1 0.130913 0.727481 0.5
331 1 0.177326 0.742293 0.5
292 1 0.218982 0.736695 0.5
29 1 0.131903 0.784301 0.5
304 1 0.180773 0.810364 0.5
374 1 0.225787 0.785076 0.5
238 1 0.14134 0.840531 0.5
111 1 0.209544 0.839147 0.5
126 1 0.17812 0.87141 0.5
35 1 0.147632 0.904035 0.5
76 1 0.237681 0.907603 0.5
236 1 0.189175 0.938332 0.5
272 1 0.230884 0.959111 0.5
217 1 0.14278 0.998172 0.5
39 1 0.183057 0.988726 0.5
7 1 0.277607 0.0202717 0.5
202 1 0.329054 0.0303743 0.5
161 1 0.363698 0.0548137 0.5
125 1 0.262852 0.0670575 0.5
254 1 0.309174 0.0660455 0.5
158 1 0.250901 0.115423 0.5
155 1 0.293986 0.103972 0.5
120 1 0.37257 0.108278 0.5
4 1 0.342232 0.135376 0.5
282 1 0.256425 0.177574 0.5
189 1 0.328501 0.185123 0.5
75 1 0.251921 0.237507 0.5
187 1 0.296292 0.22128 0.5
376 1 0.344266 0.230022 0.5
143 1 0.300991 0.262194 0.5
226 1 0.269232 0.293224 0.5
363 1 0.334315 0.287637 0.5
375 1 0.275788 0.334161 0.5
392 1 0.319378 0.328638 0.5
383 1 0.299688 0.368159 0.5
13 1 0.369351 0.365664 0.5
176 1 0.253478 0.387336 0.5
335 1 0.285756 0.413119 0.5
260 1 0.352477 0.409186 0.5
119 1 0.283882 0.456113 0.5
140 1 0.324041 0.449394 0.5
106 1 0.25717 0.489355 0.5
200 1 0.296326 0.51051 0.5
128 1 0.374874 0.510616 0.5
147 1 0.367253 0.553624 0.5
319 1 0.312462 0.575933 0.5
129 1 0.268955 0.606846 0.5
134 1 0.359237 0.607279 0.5
270 1 0.314189 0.631677 0.5
315 1 0.289911 0.683143 0.5
204 1 0.34078 0.684416 0.5
337 1 0.281633 0.723967 0.5
43 1 0.330977 0.733162 0.5
26 1 0.300143 0.762193 0.5
299 1 0.265352 0.790927 0.5
156 1 0.305449 0.802933 0.5
59 1 0.354926 0.807636 0.5
74 1 0.292765 0.858345 0.5
346 1 0.36461 0.849423 0.5
162 1 0.277815 0.899521 0.5
88 1 0.370574 0.897789 0.5
135 1 0.336541 0.930169 0.5
105 1 0.287838 0.940428 0.5
285 1 0.269429 0.97973 0.5
175 1 0.319539 0.988641 0.5
139 1 0.421438 0.018165 0.5
371 1 0.455682 0.0397174 0.5
268 1 0.496541 0.0394832 0.5
399 1 0.419564 0.0681836 0.5
199 1 0.469772 0.0784387 0.5
344 1 0.43708 0.103055 0.5
216 1 0.411001 0.142257 0.5
50 1 0.488916 0.133505 0.5
388 1 0.387532 0.18276 0.5
153 1 0.464917 0.174642 0.5
99 1 0.399461 0.237752 0.5
400 1 0.448127 0.222141 0.5
354 1 0.495098 0.228122 0.5
281 1 0.462942 0.263876 0.5
207 1 0.376874 0.311315 0.5
286 1 0.40825 0.286125 0.5
62 1 0.443162 0.316948 0.5
325 1 0.479384 0.333353 0.5
353 1 0.455313 0.367442 0.5
137 1 0.495768 0.372983 0.5
306 1 0.401432 0.406242 0.5
390 1 0.43117 0.43573 0.5
305 1 0.463488 0.413189 0.5
163 1 0.378729 0.441255 0.5
367 1 0.497528 0.438429 0.5
395 1 0.448515 0.491198 0.5
110 1 0.497044 0.528252 0.5
312 1 0.430784 0.538834 0.5
46 1 0.401765 0.577921 0.5
146 1 0.461936 0.56353 0.5
56 1 0.454666 0.606449 0.5
233 1 0.496905 0.604362 0.5
293 1 0.38282 0.647142 0.5
93 1 0.443325 0.646072 0.5
148 1 0.398711 0.703846 0.5
366 1 0.449084 0.708317 0.5
150 1 0.496545 0.698082 0.5
396 1 0.420579 0.737661 0.5
167 1 0.478922 0.744745 0.5
152 1 0.385905 0.776795 0.5
160 1 0.450956 0.776174 0.5
95 1 0.411184 0.809776 0.5
307 1 0.458261 0.836369 0.5
213 1 0.412717 0.863868 0.5
314 1 0.478783 0.875624 0.5
258 1 0.417294 0.916948 0.5
380 1 0.462771 0.911111 0.5
38 1 0.387201 0.948472 0.5
77 1 0.463752 0.952967 0.5
214 1 0.382251 0.998761 0.5
90 1 0.455169 0.995979 0.5
218 1 0.580605 0.0181824 0.5
116 1 0.618815 0.0233518 0.5
37 1 0.53825 0.0411978 0.5
267 1 0.556326 0.0899281 0.5
339 1 0.605086 0.0684479 0.5
212 1 0.508104 0.0942316 0.5
201 1 0.532342 0.142352 0.5
351 1 0.581088 0.13561 0.5
57 1 0.531777 0.186822 0.5
317 1 0.595265 0.188098 0.5
80 1 0.557423 0.232326 0.5
356 1 0.509974 0.277792 0.5
61 1 0.609889 0.250841 0.5
97 1 0.571903 0.290642 0.5
378 1 0.528085 0.324019 0.5
65 1 0.594751 0.358509 0.5
49 1 0.554761 0.377741 0.5
330 1 0.567362 0.427227 0.5
14 1 0.609748 0.414663 0.5
114 1 0.619333 0.455464 0.5
186 1 0.521672 0.485527 0.5
171 1 0.575778 0.470515 0.5
41 1 0.539221 0.547396 0.5
173 1 0.554784 0.604277 0.5
241 1 0.60533 0.596178 0.5
130 1 0.521457 0.645385 0.5
53 1 0.584215 0.65294 0.5
370 1 0.622743 0.636042 0.5
72 1 0.564007 0.690178 0.5
169 1 0.603776 0.707104 0.5
324 1 0.532293 0.72887 0.5
296 1 0.503445 0.775721 0.5
266 1 0.546689 0.774012 0.5
121 1 0.580121 0.750406 0.5
182 1 0.619066 0.779514 0.5
328 1 0.508568 0.817501 0.5
9 1 0.557523 0.822059 0.5
203 1 0.599681 0.816888 0.5
194 1 0.531691 0.851434 0.5
30 1 0.624442 0.850035 0.5
109 1 0.515255 0.894046 0.5
389 1 0.608912 0.888156 0.5
107 1 0.533334 0.934951 0.5
165 1 0.573593 0.926315 0.5
215 1 0.523941 0.985561 0.5
118 1 0.565086 0.973682 0.5
210 1 0.60635 0.984563 0.5
193 1 0.657752 0.046467 0.5
1 1 0.742033 0.042269 0.5
96 1 0.686773 0.0788564 0.5
365 1 0.660863 0.11446 0.5
22 1 0.720326 0.113323 0.5
290 1 0.67331 0.162186 0.5
164 1 0.649272 0.194456 0.5
2 1 0.703863 0.212169 0.5
283 1 0.662955 0.232342 0.5
154 1 0.731917 0.253627 0.5
329 1 0.64448 0.285615 0.5
310 1 0.693909 0.293491 0.5
261 1 0.736011 0.3023 0.5
352 1 0.629579 0.33203 0.5
225 1 0.692739 0.336464 0.5
55 1 0.641395 0.389256 0.5
124 1 0.708006 0.385672 0.5
297 1 0.653861 0.427532 0.5
231 1 0.70746 0.430694 0.5
341 1 0.667901 0.473414 0.5
223 1 0.717532 0.480875 0.5
68 1 0.633491 0.507596 0.5
144 1 0.680283 0.52291 0.5
243 1 0.737773 0.530425 0.5
391 1 0.641385 0.577543 0.5
44 1 0.680826 0.571533 0.5
255 1 0.709948 0.60066 0.5
24 1 0.686259 0.648112 0.5
122 1 0.729567 0.648294 0.5
264 1 0.632608 0.677949 0.5
298 1 0.722956 0.686795 0.5
79 1 0.633525 0.733777 0.5
228 1 0.671555 0.724472 0.5
262 1 0.714599 0.728938 0.5
18 1 0.66039 0.763265 0.5
63 1 0.703286 0.774631 0.5
178 1 0.747959 0.774654 0.5
208 1 0.670384 0.839941 0.5
263 1 0.724807 0.824293 0.5
52 1 0.703844 0.863343 0.5
145 1 0.744188 0.874514 0.5
51 1 0.656772 0.892741 0.5
393 1 0.721482 0.932238 0.5
71 1 0.626813 0.948603 0.5
67 1 0.670149 0.941747 0.5
117 1 0.648351 0.994777 0.5
141 1 0.693545 0.978639 0.5
101 1 0.735293 0.998765 0.5
345 1 0.864362 0.00101462 0.5
8 1 0.787829 0.0369744 0.5
384 1 0.834968 0.0395055 0.5
309 1 0.762953 0.0876005 0.5
360 1 0.872501 0.0883622 0.5
373 1 0.824986 0.0968046 0.5
250 1 0.799904 0.140599 0.5
237 1 0.841825 0.135114 0.5
219 1 0.752296 0.164589 0.5
248 1 0.792083 0.180527 0.5
246 1 0.834589 0.186069 0.5
357 1 0.755902 0.217329 0.5
108 1 0.806706 0.222072 0.5
84 1 0.843326 0.243836 0.5
350 1 0.774303 0.254433 0.5
235 1 0.781249 0.311418 0.5
338 1 0.82422 0.299831 0.5
159 1 0.865409 0.289012 0.5
177 1 0.867049 0.335218 0.5
326 1 0.751679 0.354004 0.5
127 1 0.803158 0.34531 0.5
274 1 0.775506 0.384756 0.5
32 1 0.837737 0.38401 0.5
259 1 0.75275 0.422636 0.5
102 1 0.789848 0.436595 0.5
16 1 0.830698 0.422684 0.5
362 1 0.756389 0.488576 0.5
190 1 0.816275 0.474826 0.5
104 1 0.837434 0.51485 0.5
3 1 0.791421 0.534288 0.5
10 1 0.803648 0.580548 0.5
381 1 0.845083 0.580098 0.5
91 1 0.780108 0.619489 0.5
372 1 0.861346 0.615695 0.5
288 1 0.815949 0.645735 0.5
358 1 0.868377 0.653765 0.5
185 1 0.774306 0.66877 0.5
166 1 0.805234 0.707396 0.5
211 1 0.850876 0.701215 0.5
27 1 0.832175 0.741656 0.5
232 1 0.791538 0.755052 0.5
349 1 0.799812 0.797868 0.5
206 1 0.842921 0.783435 0.5
47 1 0.76802 0.826185 0.5
73 1 0.859473 0.821565 0.5
364 1 0.787904 0.864075 0.5
198 1 0.788067 0.903385 0.5
377 1 0.847255 0.885856 0.5
195 1 0.817378 0.936957 0.5
275 1 0.855928 0.953384 0.5
336 1 0.777112 0.978456 0.5
174 1 0.820656 0.994028 0.5
183 1 0.926592 0.0183239 0.5
323 1 0.88245 0.0417465 0.5
66 1 0.993306 0.0567124 0.5
21 1 0.945576 0.0953176 0.5
6 1 0.990233 0.123669 0.5
318 1 0.885618 0.137728 0.5
20 1 0.95374 0.147955 0.5
234 1 0.876087 0.186208 0.5
149 1 0.92264 0.17301 0.5
64 1 0.982459 0.180733 0.5
87 1 0.951359 0.207676 0.5
196 1 0.911976 0.222601 0.5
251 1 0.980501 0.25996 0.5
11 1 0.908513 0.306723 0.5
172 1 0.943169 0.331075 0.5
19 1 0.979841 0.31737 0.5
355 1 0.918099 0.366403 0.5
142 1 0.989543 0.356528 0.5
138 1 0.882146 0.392441 0.5
168 1 0.959196 0.389498 0.5
316 1 0.92978 0.434462 0.5
280 1 0.969631 0.437301 0.5
85 1 0.894268 0.475525 0.5
276 1 0.957735 0.477665 0.5
131 1 0.878874 0.522206 0.5
394 1 0.922961 0.506554 0.5
28 1 0.972152 0.525831 0.5
136 1 0.915573 0.547209 0.5
273 1 0.94434 0.586336 0.5
224 1 0.897872 0.596178 0.5
5 1 0.996361 0.6021 0.5
387 1 0.917309 0.645711 0.5
332 1 0.980205 0.640394 0.5
327 1 0.898458 0.683251 0.5
277 1 0.952255 0.669682 0.5
83 1 0.998882 0.680859 0.5
115 1 0.962253 0.716548 0.5
23 1 0.884374 0.743278 0.5
252 1 0.922027 0.719845 0.5
151 1 0.996464 0.747085 0.5
100 1 0.946154 0.774329 0.5
334 1 0.896353 0.784609 0.5
303 1 0.980117 0.800287 0.5
112 1 0.934582 0.813937 0.5
249 1 0.907629 0.849524 0.5
70 1 0.962734 0.867058 0.5
300 1 0.884493 0.90317 0.5
340 1 0.944417 0.905881 0.5
294 1 0.994628 0.905986 0.5
15 1 0.934749 0.94737 0.5
271 1 0.985774 0.949235 0.5
82 1 0.900727 0.975076 0.5
86 1 0.957045 0.981356 0.5
