ITEM: TIMESTEP
100000
ITEM: NUMBER OF ATOMS
400
ITEM: BOX BOUNDS pp pp pp
0.0000000000000000e+00 2.1081851067789195e+01
0.0000000000000000e+00 2.1081851067789195e+01
-5.2704627669472992e-01 5.2704627669472992e-01
ITEM: ATOMS id type xs ys zs
266 1 0.0570275 0.013545 0.5
295 1 0.0852465 0.0668062 0.5
128 1 0.0183438 0.0385977 0.5
346 1 0.0299409 0.0855696 0.5
41 1 0.0668679 0.110607 0.5
244 1 0.124832 0.0126491 0.5
130 1 0.0578775 0.165253 0.5
208 1 0.113461 0.14673 0.5
301 1 0.015998 0.199218 0.5
179 1 0.0738233 0.209836 0.5
345 1 0.0380685 0.247154 0.5
311 1 0.118624 0.204341 0.5
92 1 0.0425585 0.350054 0.5
305 1 0.0320111 0.302467 0.5
254 1 0.0859545 0.331046 0.5
359 1 0.0951456 0.263155 0.5
172 1 0.118357 0.36562 0.5
375 1 0.0310281 0.413337 0.5
44 1 0.0690188 0.467062 0.5
176 1 0.113625 0.480862 0.5
26 1 0.0122108 0.467746 0.5
181 1 0.107254 0.433469 0.5
339 1 0.0759729 0.384694 0.5
275 1 0.0190925 0.554541 0.5
169 1 0.071778 0.541849 0.5
326 1 0.104162 0.580597 0.5
33 1 0.0496693 0.590324 0.5
357 1 0.115299 0.529769 0.5
228 1 0.00747038 0.619094 0.5
112 1 0.0399716 0.505783 0.5
60 1 0.0807406 0.622322 0.5
39 1 0.0378059 0.7336 0.5
306 1 0.106028 0.711644 0.5
2 1 0.0644868 0.691408 0.5
235 1 0.107348 0.66179 0.5
240 1 0.043034 0.6501 0.5
319 1 0.0176586 0.690359 0.5
108 1 0.0590052 0.867422 0.5
366 1 0.0858504 0.816849 0.5
220 1 0.074375 0.761718 0.5
69 1 0.0344877 0.780853 0.5
395 1 0.0184795 0.835446 0.5
100 1 0.119545 0.847529 0.5
217 1 0.048813 0.966148 0.5
384 1 0.0283892 0.918349 0.5
84 1 0.115503 0.895543 0.5
135 1 0.0746739 0.919769 0.5
73 1 0.095731 0.965024 0.5
95 1 0.183303 0.0270104 0.5
86 1 0.228459 0.109096 0.5
188 1 0.18343 0.0929073 0.5
185 1 0.151004 0.0597398 0.5
323 1 0.240086 0.0608236 0.5
300 1 0.236457 0.00922003 0.5
337 1 0.125083 0.100914 0.5
312 1 0.217769 0.214371 0.5
68 1 0.194467 0.176147 0.5
122 1 0.165783 0.217902 0.5
229 1 0.238064 0.15559 0.5
55 1 0.159993 0.137491 0.5
123 1 0.127534 0.311924 0.5
255 1 0.171244 0.330316 0.5
107 1 0.210677 0.359903 0.5
54 1 0.209066 0.268335 0.5
224 1 0.16213 0.265868 0.5
76 1 0.232075 0.313087 0.5
381 1 0.198299 0.488496 0.5
111 1 0.153771 0.440698 0.5
290 1 0.200104 0.442944 0.5
304 1 0.241623 0.397112 0.5
264 1 0.17755 0.399674 0.5
48 1 0.232155 0.519289 0.5
249 1 0.181965 0.596259 0.5
212 1 0.191817 0.542963 0.5
77 1 0.148495 0.56588 0.5
398 1 0.232719 0.57382 0.5
210 1 0.226365 0.622256 0.5
83 1 0.154485 0.50123 0.5
198 1 0.220103 0.671795 0.5
316 1 0.203519 0.718856 0.5
182 1 0.177504 0.649352 0.5
133 1 0.158296 0.716643 0.5
125 1 0.136769 0.624275 0.5
335 1 0.20187 0.821559 0.5
22 1 0.165288 0.846929 0.5
12 1 0.226219 0.861473 0.5
118 1 0.224608 0.766456 0.5
52 1 0.180221 0.778567 0.5
392 1 0.129937 0.757594 0.5
285 1 0.137388 0.804259 0.5
332 1 0.241588 0.918005 0.5
234 1 0.133509 0.936947 0.5
206 1 0.181602 0.934755 0.5
114 1 0.184517 0.888166 0.5
397 1 0.168558 0.982341 0.5
321 1 0.223045 0.962972 0.5
340 1 0.335944 0.116075 0.5
75 1 0.287648 0.0224975 0.5
281 1 0.283883 0.101049 0.5
262 1 0.317448 0.0672527 0.5
308 1 0.342694 0.0226169 0.5
72 1 0.363339 0.0749536 0.5
274 1 0.274007 0.190911 0.5
194 1 0.326043 0.194205 0.5
3 1 0.293804 0.15073 0.5
102 1 0.276412 0.23629 0.5
222 1 0.373603 0.168338 0.5
57 1 0.348358 0.243754 0.5
158 1 0.313767 0.27505 0.5
393 1 0.348169 0.310772 0.5
237 1 0.266248 0.281309 0.5
104 1 0.291431 0.315285 0.5
289 1 0.330139 0.356843 0.5
322 1 0.279574 0.367165 0.5
299 1 0.31247 0.453002 0.5
400 1 0.340727 0.404856 0.5
288 1 0.295064 0.410686 0.5
58 1 0.367802 0.444714 0.5
215 1 0.292016 0.495149 0.5
334 1 0.34403 0.494563 0.5
64 1 0.2517 0.456165 0.5
31 1 0.315961 0.547248 0.5
138 1 0.269239 0.547533 0.5
168 1 0.320246 0.602258 0.5
227 1 0.360602 0.540704 0.5
327 1 0.270241 0.597233 0.5
365 1 0.371694 0.602873 0.5
45 1 0.373053 0.649171 0.5
97 1 0.298652 0.697885 0.5
219 1 0.350654 0.695414 0.5
78 1 0.272931 0.643471 0.5
236 1 0.322889 0.73962 0.5
253 1 0.322675 0.648872 0.5
379 1 0.253271 0.70483 0.5
93 1 0.262554 0.816332 0.5
113 1 0.316397 0.790008 0.5
40 1 0.360042 0.818227 0.5
209 1 0.315719 0.842549 0.5
225 1 0.269397 0.753223 0.5
190 1 0.368945 0.764041 0.5
349 1 0.365624 0.868197 0.5
362 1 0.270063 0.865834 0.5
207 1 0.334468 0.943058 0.5
53 1 0.317572 0.894006 0.5
155 1 0.284421 0.931488 0.5
30 1 0.268397 0.974237 0.5
116 1 0.370515 0.912677 0.5
197 1 0.367012 0.981693 0.5
177 1 0.31458 0.985029 0.5
303 1 0.430934 0.116533 0.5
171 1 0.474867 0.0960346 0.5
148 1 0.453702 0.0402258 0.5
344 1 0.418263 0.068814 0.5
363 1 0.389859 0.0323361 0.5
79 1 0.496529 0.0203212 0.5
174 1 0.381988 0.120744 0.5
178 1 0.47734 0.200164 0.5
36 1 0.429533 0.180224 0.5
276 1 0.388564 0.214785 0.5
202 1 0.444577 0.237313 0.5
162 1 0.468146 0.142087 0.5
250 1 0.37964 0.356208 0.5
283 1 0.467809 0.304284 0.5
81 1 0.427461 0.281397 0.5
269 1 0.414575 0.325362 0.5
294 1 0.381312 0.278202 0.5
343 1 0.43988 0.36529 0.5
121 1 0.487205 0.256729 0.5
29 1 0.49068 0.345938 0.5
315 1 0.464315 0.434761 0.5
56 1 0.421082 0.41398 0.5
191 1 0.464448 0.489595 0.5
388 1 0.426792 0.46093 0.5
272 1 0.483473 0.39224 0.5
132 1 0.388549 0.486408 0.5
152 1 0.401745 0.570278 0.5
167 1 0.422821 0.526914 0.5
223 1 0.450382 0.586566 0.5
146 1 0.477777 0.53929 0.5
273 1 0.414391 0.618599 0.5
355 1 0.445405 0.711047 0.5
383 1 0.483642 0.683281 0.5
358 1 0.396258 0.714634 0.5
373 1 0.485215 0.732404 0.5
136 1 0.41558 0.673685 0.5
376 1 0.459813 0.630538 0.5
137 1 0.4045 0.810567 0.5
367 1 0.475131 0.875517 0.5
251 1 0.457032 0.789218 0.5
189 1 0.492214 0.826188 0.5
371 1 0.44451 0.841234 0.5
342 1 0.42043 0.759334 0.5
247 1 0.411132 0.890445 0.5
80 1 0.455028 0.96411 0.5
265 1 0.418566 0.995272 0.5
348 1 0.409027 0.937538 0.5
338 1 0.453743 0.914031 0.5
341 1 0.624375 0.114965 0.5
396 1 0.609471 0.0702487 0.5
15 1 0.559132 0.0848294 0.5
13 1 0.535119 0.0439284 0.5
331 1 0.58041 0.0285977 0.5
201 1 0.510328 0.124638 0.5
245 1 0.597153 0.243549 0.5
170 1 0.582966 0.188783 0.5
372 1 0.519974 0.218336 0.5
124 1 0.576184 0.133994 0.5
261 1 0.540442 0.170303 0.5
91 1 0.516535 0.307058 0.5
257 1 0.535425 0.261903 0.5
38 1 0.578034 0.333508 0.5
310 1 0.5769 0.28503 0.5
160 1 0.539929 0.359673 0.5
6 1 0.50385 0.454384 0.5
196 1 0.526398 0.406644 0.5
313 1 0.607759 0.46443 0.5
16 1 0.556302 0.445273 0.5
324 1 0.583484 0.389767 0.5
105 1 0.522446 0.546913 0.5
67 1 0.547887 0.585739 0.5
163 1 0.596543 0.593369 0.5
279 1 0.597651 0.539316 0.5
183 1 0.500921 0.601197 0.5
164 1 0.511327 0.501956 0.5
61 1 0.565988 0.504363 0.5
270 1 0.570169 0.632327 0.5
370 1 0.574197 0.680318 0.5
252 1 0.525391 0.650855 0.5
268 1 0.529928 0.701816 0.5
35 1 0.610352 0.652725 0.5
356 1 0.572111 0.725291 0.5
336 1 0.622448 0.705189 0.5
318 1 0.537714 0.831012 0.5
214 1 0.559337 0.782379 0.5
192 1 0.615242 0.75085 0.5
186 1 0.622696 0.869795 0.5
205 1 0.584254 0.827674 0.5
352 1 0.505505 0.774069 0.5
369 1 0.577014 0.873673 0.5
361 1 0.532216 0.893435 0.5
51 1 0.589345 0.977309 0.5
293 1 0.545538 0.94906 0.5
211 1 0.545838 0.996955 0.5
246 1 0.582288 0.923675 0.5
309 1 0.502561 0.972816 0.5
218 1 0.500397 0.926593 0.5
314 1 0.69766 0.0210962 0.5
173 1 0.653289 0.037594 0.5
144 1 0.72074 0.0761621 0.5
23 1 0.741398 0.0335015 0.5
27 1 0.676723 0.0825841 0.5
43 1 0.716112 0.120586 0.5
333 1 0.670353 0.128664 0.5
149 1 0.744721 0.245203 0.5
119 1 0.696521 0.235819 0.5
126 1 0.722831 0.197383 0.5
267 1 0.669482 0.181727 0.5
34 1 0.74805 0.158295 0.5
28 1 0.626665 0.206344 0.5
62 1 0.627529 0.160492 0.5
70 1 0.675154 0.332776 0.5
239 1 0.723007 0.341021 0.5
399 1 0.732968 0.289263 0.5
350 1 0.684723 0.281227 0.5
238 1 0.635379 0.298058 0.5
142 1 0.648523 0.251067 0.5
391 1 0.713527 0.47514 0.5
213 1 0.69272 0.434676 0.5
147 1 0.628174 0.421357 0.5
101 1 0.660025 0.468424 0.5
165 1 0.669973 0.391452 0.5
277 1 0.717246 0.392675 0.5
226 1 0.634695 0.567479 0.5
354 1 0.684235 0.563732 0.5
184 1 0.642777 0.612428 0.5
204 1 0.744012 0.512838 0.5
317 1 0.732762 0.569801 0.5
150 1 0.744638 0.615538 0.5
5 1 0.686802 0.51189 0.5
139 1 0.637192 0.510966 0.5
24 1 0.692833 0.608056 0.5
329 1 0.726472 0.675602 0.5
156 1 0.684942 0.695921 0.5
216 1 0.711281 0.742393 0.5
271 1 0.65944 0.657019 0.5
47 1 0.673091 0.841749 0.5
106 1 0.725276 0.805466 0.5
8 1 0.626513 0.805956 0.5
49 1 0.712181 0.869273 0.5
88 1 0.680906 0.795339 0.5
231 1 0.662139 0.750584 0.5
140 1 0.637183 0.925456 0.5
386 1 0.675987 0.896372 0.5
230 1 0.681806 0.945375 0.5
385 1 0.725033 0.930969 0.5
284 1 0.726695 0.984776 0.5
19 1 0.643029 0.983792 0.5
296 1 0.833962 0.063275 0.5
115 1 0.788609 0.0544862 0.5
89 1 0.85831 0.112896 0.5
382 1 0.810958 0.108303 0.5
63 1 0.765691 0.096717 0.5
280 1 0.820197 0.0173634 0.5
157 1 0.868814 0.0318108 0.5
87 1 0.845871 0.16124 0.5
347 1 0.796588 0.153841 0.5
20 1 0.830024 0.209269 0.5
297 1 0.778066 0.196083 0.5
143 1 0.800805 0.242552 0.5
25 1 0.855485 0.347035 0.5
7 1 0.802586 0.330042 0.5
258 1 0.777975 0.290487 0.5
242 1 0.762888 0.365828 0.5
21 1 0.832853 0.292015 0.5
90 1 0.859329 0.251961 0.5
364 1 0.809358 0.45177 0.5
282 1 0.766497 0.469406 0.5
243 1 0.760732 0.414034 0.5
159 1 0.858544 0.406456 0.5
59 1 0.804379 0.402563 0.5
260 1 0.848678 0.496498 0.5
11 1 0.841283 0.552346 0.5
325 1 0.779166 0.569315 0.5
65 1 0.831585 0.599242 0.5
82 1 0.804779 0.521687 0.5
259 1 0.790289 0.620531 0.5
320 1 0.820245 0.703281 0.5
241 1 0.802914 0.748779 0.5
200 1 0.869668 0.635417 0.5
330 1 0.864947 0.6801 0.5
103 1 0.823651 0.653637 0.5
193 1 0.78173 0.675136 0.5
360 1 0.855773 0.737851 0.5
42 1 0.75896 0.72038 0.5
74 1 0.867893 0.83004 0.5
99 1 0.822412 0.871513 0.5
233 1 0.759951 0.835523 0.5
141 1 0.840144 0.783354 0.5
291 1 0.795439 0.794869 0.5
328 1 0.759127 0.765736 0.5
180 1 0.77083 0.952076 0.5
134 1 0.760297 0.898139 0.5
96 1 0.804217 0.913079 0.5
154 1 0.816003 0.969975 0.5
14 1 0.851554 0.931513 0.5
387 1 0.858385 0.98798 0.5
4 1 0.776183 0.998289 0.5
374 1 0.873639 0.881776 0.5
10 1 0.997889 0.120765 0.5
256 1 0.901717 0.100818 0.5
85 1 0.972575 0.0598697 0.5
292 1 0.912231 0.0470068 0.5
175 1 0.970427 0.0145807 0.5
50 1 0.949659 0.119474 0.5
368 1 0.876629 0.199391 0.5
37 1 0.982935 0.165854 0.5
351 1 0.974729 0.219271 0.5
110 1 0.930453 0.179551 0.5
120 1 0.889798 0.155852 0.5
117 1 0.914912 0.229193 0.5
187 1 0.950869 0.258747 0.5
129 1 0.904042 0.331385 0.5
286 1 0.898871 0.280293 0.5
203 1 0.949625 0.307042 0.5
161 1 0.951026 0.353432 0.5
390 1 0.998448 0.268738 0.5
32 1 0.99343 0.328994 0.5
353 1 0.905436 0.384619 0.5
153 1 0.953642 0.4079 0.5
287 1 0.92215 0.447609 0.5
389 1 0.956291 0.479838 0.5
145 1 0.908854 0.494808 0.5
380 1 0.875021 0.454932 0.5
394 1 0.994908 0.377677 0.5
94 1 0.924851 0.57622 0.5
377 1 0.94851 0.529709 0.5
166 1 0.991841 0.509169 0.5
302 1 0.973196 0.567785 0.5
278 1 0.958318 0.612931 0.5
17 1 0.879642 0.589543 0.5
131 1 0.884481 0.538559 0.5
109 1 0.956963 0.709301 0.5
46 1 0.907951 0.713407 0.5
378 1 0.925375 0.672584 0.5
298 1 0.975941 0.654358 0.5
221 1 0.990988 0.74097 0.5
248 1 0.914053 0.623532 0.5
98 1 0.958505 0.851733 0.5
232 1 0.89509 0.783141 0.5
127 1 0.938843 0.80682 0.5
199 1 0.911526 0.842995 0.5
9 1 0.986074 0.798127 0.5
307 1 0.93408 0.759327 0.5
195 1 0.967511 0.923332 0.5
151 1 0.943191 0.962865 0.5
263 1 0.993643 0.963646 0.5
1 1 0.899134 0.935891 0.5
18 1 0.928357 0.895639 0.5
71 1 0.994936 0.888331 0.5
66 1 0.906131 0.999694 0.5
