LAMMPS (15 Sep 2022)
OMP_NUM_THREADS environment is not set. Defaulting to 1 thread. (src/comm.cpp:98)
  using 1 OpenMP thread(s) per MPI task
# 2d WCA system, random initial configuration

#variable density equal 0.5
variable initial_temperature equal 3.0
variable final_temperature equal 0.1
variable dt equal 0.01
variable tau equal 100*${dt}
variable tau equal 100*0.01
variable thermo_time equal 50000*${dt}
variable thermo_time equal 50000*0.01
variable equil_steps equal 50000
variable run_steps equal 100000

units           lj
atom_style      atomic
dimension       2

lattice         sq ${density}
lattice         sq 1.0
Lattice spacing in x,y,z = 1 1 1
region          box block 0 20 0 20 -0.5 0.5
# number of atom types
create_box      1 box
Created orthogonal box = (0 0 -0.5) to (20 20 0.5)
  2 by 2 by 1 MPI processor grid
create_atoms    1 box
Created 400 atoms
  using lattice units in orthogonal box = (0 0 -0.5) to (20 20 0.5)
  create_atoms CPU = 0.000 seconds
mass 1 1.0

velocity all create ${initial_temperature} 25000
velocity all create 3 25000

pair_style      lj/cut 1.0
#type_1 type_2 epsilon sigma cutoff
pair_coeff      1 1 10.0 0.89089871814 1.0
pair_modify shift yes

timestep ${dt}
timestep 0.01
thermo ${thermo_time}
thermo 500

fix 1 all nvt temp ${initial_temperature} ${initial_temperature} ${tau}
fix 1 all nvt temp 3 ${initial_temperature} ${tau}
fix 1 all nvt temp 3 3 ${tau}
fix 1 all nvt temp 3 3 1
run ${equil_steps}
run 50000
Generated 0 of 0 mixed pair_coeff terms from geometric mixing rule
Neighbor list info ...
  update: every = 1 steps, delay = 0 steps, check = yes
  max neighbors/atom: 2000, page size: 100000
  master list distance cutoff = 1.3
  ghost atom cutoff = 1.3
  binsize = 0.65, bins = 31 31 2
  1 neighbor lists, perpetual/occasional/extra = 1 0 0
  (1) pair lj/cut, perpetual
      attributes: half, newton on
      pair build: half/bin/atomonly/newton
      stencil: half/bin/2d
      bin: standard
Per MPI rank memory allocation (min/avg/max) = 3.049 | 3.049 | 3.049 Mbytes
   Step          Temp          E_pair         E_mol          TotEng         Press     
         0   3              0              0              2.9925         2.9925       
       500   3.2359736      1.6572366      0              4.8851203      32.459788    
      1000   3.1297726      1.656339       0              4.7782871      33.158021    
      1500   3.210935       1.4064413      0              4.609349       29.249016    
      2000   3.2653899      1.733913       0              4.9911394      33.301944    
      2500   3.20366        1.6293833      0              4.8250342      32.92494     
      3000   3.2743714      1.6491412      0              4.9153266      33.209312    
      3500   3.129405       1.8267529      0              4.9483344      34.779367    
      4000   2.9576934      1.9209585      0              4.8712576      35.387984    
      4500   3.1602037      1.6566976      0              4.8090007      32.333963    
      5000   3.1941077      1.8544147      0              5.0405371      34.646457    
      5500   3.1307703      1.5225562      0              4.6454996      30.586571    
      6000   3.2094317      1.6622044      0              4.8636125      32.571771    
      6500   3.2405864      1.8198625      0              5.0523474      34.893863    
      7000   2.9044201      1.4754174      0              4.3725764      30.137533    
      7500   3.0405077      1.4746019      0              4.5075083      30.819985    
      8000   3.0620102      1.3756024      0              4.4299576      28.269115    
      8500   3.0460006      1.5196446      0              4.5580302      30.723676    
      9000   3.0447718      1.7279553      0              4.7651151      33.547868    
      9500   3.1934858      1.7693135      0              4.9548156      34.240372    
     10000   3.1049692      1.8124277      0              4.9096345      34.166797    
     10500   3.0764465      1.8860031      0              4.9547584      34.722764    
     11000   3.0621626      1.7217257      0              4.7762329      33.347832    
     11500   3.0646027      1.5288614      0              4.5858026      30.580547    
     12000   3.3324993      1.6104278      0              4.9345959      32.324578    
     12500   3.0095579      1.4535473      0              4.4555813      29.971296    
     13000   3.0857477      1.5882932      0              4.6663265      31.747028    
     13500   2.9086392      1.2867255      0              4.1880932      27.507358    
     14000   3.1215592      1.3983229      0              4.5120782      28.792155    
     14500   2.8904108      1.6851171      0              4.5683019      32.520256    
     15000   3.0661733      1.6392598      0              4.6977676      32.759559    
     15500   3.157226       1.5848033      0              4.7341362      31.924026    
     16000   3.0742809      1.7435811      0              4.8101763      33.302679    
     16500   3.4862343      1.6652995      0              5.1428182      33.048609    
     17000   2.7453763      1.64427        0              4.3827829      32.730935    
     17500   2.8616359      1.7215205      0              4.5760023      32.713227    
     18000   3.0931838      1.6306681      0              4.716119       32.082454    
     18500   2.8813355      1.2979292      0              4.1720613      26.953459    
     19000   2.7959404      1.5410875      0              4.3300381      30.078063    
     19500   2.9762413      1.4848785      0              4.4536792      29.951255    
     20000   3.0708086      1.5445782      0              4.6077098      30.983465    
     20500   3.0580083      1.5898224      0              4.6401856      32.404768    
     21000   3.0284008      1.7282498      0              4.7490796      33.671464    
     21500   2.9704714      1.7770499      0              4.7400952      33.255378    
     22000   3.2613859      1.8053459      0              5.0585783      33.666676    
     22500   2.8889748      1.7137802      0              4.5955325      33.193492    
     23000   3.1674573      1.5677964      0              4.727335       32.119981    
     23500   3.03952        1.6555974      0              4.6875187      32.42338     
     24000   3.0084945      1.5702829      0              4.5712561      31.536218    
     24500   3.0027227      1.4442029      0              4.4394188      30.069161    
     25000   2.9200905      1.5311199      0              4.4439101      30.82946     
     25500   2.8493822      1.3240835      0              4.1663423      27.836451    
     26000   2.7875238      1.6474986      0              4.4280536      32.041921    
     26500   3.0288229      1.6316361      0              4.6528869      32.144824    
     27000   3.2781805      1.6224819      0              4.892467       32.545978    
     27500   3.1896066      1.5667667      0              4.7483993      31.18991     
     28000   2.8766486      1.7804577      0              4.6499146      33.393466    
     28500   3.1603792      1.6840742      0              4.8365525      32.212272    
     29000   3.0677405      1.6618973      0              4.7219685      32.047904    
     29500   3.225597       1.4920178      0              4.7095509      30.680081    
     30000   3.090613       1.4403726      0              4.5232591      29.44586     
     30500   2.7716963      1.7091517      0              4.4739188      32.639262    
     31000   3.1074826      1.4462388      0              4.5459526      30.047404    
     31500   2.9852334      1.8539504      0              4.8317208      34.364949    
     32000   2.8852421      1.7427958      0              4.6208248      33.515995    
     32500   2.8743661      1.6684033      0              4.5355835      32.763066    
     33000   2.9999904      1.5054673      0              4.4979578      30.215335    
     33500   2.9253616      1.4982513      0              4.4162995      30.531579    
     34000   2.9046405      1.5567515      0              4.4541304      31.348134    
     34500   3.0722678      1.5402503      0              4.6048375      31.049215    
     35000   2.9227041      1.6882844      0              4.6036817      32.284901    
     35500   2.9734342      1.4961881      0              4.4621887      29.952476    
     36000   3.039119       1.3990757      0              4.4305969      28.846984    
     36500   2.843249       1.5081422      0              4.3442831      30.067009    
     37000   2.9195688      1.6163936      0              4.5286635      31.889298    
     37500   3.0527992      1.5596057      0              4.6047728      31.720897    
     38000   2.9612232      1.6103546      0              4.5641747      31.963306    
     38500   3.1605863      1.5386658      0              4.6913507      30.973451    
     39000   2.7349078      1.8036283      0              4.5316988      33.891441    
     39500   3.3486899      1.4923639      0              4.8326821      30.435019    
     40000   3.0682561      1.7678225      0              4.828408       33.476982    
     40500   2.8463409      1.3971484      0              4.2363735      28.560323    
     41000   2.8455895      1.6415341      0              4.4800096      32.867069    
     41500   2.9303885      1.5958702      0              4.5189327      32.069585    
     42000   2.7275333      1.647612       0              4.3683265      32.112141    
     42500   2.9741434      1.5464539      0              4.5131619      31.338275    
     43000   3.0961071      1.5325154      0              4.6208823      30.747374    
     43500   3.0686592      1.4874972      0              4.5484847      30.914886    
     44000   3.3115048      1.6867292      0              4.9899553      33.342942    
     44500   2.9777461      1.6909754      0              4.6612772      32.787027    
     45000   3.0233417      1.562338       0              4.5781214      31.811804    
     45500   2.9776898      1.6458301      0              4.6160757      31.991348    
     46000   2.9654561      1.5900172      0              4.5480597      31.368863    
     46500   2.9582797      1.4827844      0              4.4336683      31.057076    
     47000   3.2009507      1.4995364      0              4.6924848      30.167244    
     47500   3.2598019      1.5237092      0              4.7753616      31.128196    
     48000   2.5762294      1.7491906      0              4.3189794      33.693167    
     48500   2.7512438      1.7233878      0              4.4677536      33.015568    
     49000   3.0815783      1.5781626      0              4.652037       31.194998    
     49500   3.2630138      1.4971568      0              4.7520131      30.565115    
     50000   2.89319        1.5249902      0              4.4109472      30.453882    
Loop time of 2.39306 on 4 procs for 50000 steps with 400 atoms

Performance: 18052165.148 tau/day, 20893.710 timesteps/s, 8.357 Matom-step/s
49.7% CPU use with 4 MPI tasks x 1 OpenMP threads

MPI task timing breakdown:
Section |  min time  |  avg time  |  max time  |%varavg| %total
---------------------------------------------------------------
Pair    | 0.16505    | 0.21622    | 0.26711    |   7.8 |  9.04
Neigh   | 0.53604    | 0.5497     | 0.58877    |   3.0 | 22.97
Comm    | 1.142      | 1.2184     | 1.2934     |   5.1 | 50.91
Output  | 0.0010477  | 0.0015234  | 0.002921   |   2.1 |  0.06
Modify  | 0.19127    | 0.2574     | 0.29686    |   8.6 | 10.76
Other   |            | 0.1498     |            |       |  6.26

Nlocal:            100 ave         103 max          96 min
Histogram: 1 0 0 0 1 0 0 0 1 1
Nghost:          59.75 ave          63 max          58 min
Histogram: 1 0 2 0 0 0 0 0 0 1
Neighs:         263.25 ave         275 max         248 min
Histogram: 1 0 0 1 0 0 0 0 0 2

Total # of neighbors = 1053
Ave neighs/atom = 2.6325
Neighbor list builds = 16876
Dangerous builds = 0

unfix 1
dump           1 all atom ${run_steps} 2dWCA_T${final_temperature}_d${density}_N${run_steps}.lammpstrj
dump           1 all atom 100000 2dWCA_T${final_temperature}_d${density}_N${run_steps}.lammpstrj
dump           1 all atom 100000 2dWCA_T0.1_d${density}_N${run_steps}.lammpstrj
dump           1 all atom 100000 2dWCA_T0.1_d1.0_N${run_steps}.lammpstrj
dump           1 all atom 100000 2dWCA_T0.1_d1.0_N100000.lammpstrj
dump           2 all dcd ${thermo_time} 2dWCA_T${final_temperature}_d${density}_N${run_steps}.dcd
dump           2 all dcd 500 2dWCA_T${final_temperature}_d${density}_N${run_steps}.dcd
dump           2 all dcd 500 2dWCA_T0.1_d${density}_N${run_steps}.dcd
dump           2 all dcd 500 2dWCA_T0.1_d1.0_N${run_steps}.dcd
dump           2 all dcd 500 2dWCA_T0.1_d1.0_N100000.dcd
fix 1 all nvt temp ${initial_temperature} ${final_temperature} ${tau}
fix 1 all nvt temp 3 ${final_temperature} ${tau}
fix 1 all nvt temp 3 0.1 ${tau}
fix 1 all nvt temp 3 0.1 1

run ${run_steps}
run 100000
Generated 0 of 0 mixed pair_coeff terms from geometric mixing rule
Per MPI rank memory allocation (min/avg/max) = 3.076 | 3.076 | 3.076 Mbytes
   Step          Temp          E_pair         E_mol          TotEng         Press     
     50000   2.89319        1.5249902      0              4.4109472      30.453882    
     50500   3.0907234      1.4840284      0              4.567025       30.647696    
     51000   2.9665885      1.7883176      0              4.7474897      34.220609    
     51500   2.6509645      1.5283834      0              4.1727205      30.440797    
     52000   3.0453801      1.4351211      0              4.4728878      29.298765    
     52500   2.7831223      1.6671208      0              4.4432853      31.86167     
     53000   2.8294341      1.4707073      0              4.2930678      29.872777    
     53500   2.8694432      1.4672929      0              4.3295625      30.001282    
     54000   2.865775       1.4786837      0              4.3372942      30.204775    
     54500   2.8496789      1.5271978      0              4.3697525      30.825531    
     55000   3.0014797      1.5459702      0              4.5399463      30.243131    
     55500   2.9046251      1.4251102      0              4.3224738      28.923537    
     56000   2.8242868      1.3666262      0              4.1838523      28.407877    
     56500   3.1361855      1.3398102      0              4.4681552      28.622619    
     57000   2.9635351      1.5933627      0              4.549489       31.055537    
     57500   3.087442       1.396381       0              4.4761045      28.933557    
     58000   2.7804837      1.5741445      0              4.347677       30.23076     
     58500   2.8217532      1.3851119      0              4.1998107      28.757619    
     59000   2.9161924      1.4034484      0              4.3123503      29.134098    
     59500   2.7662764      1.6134701      0              4.3728308      31.488963    
     60000   2.8840833      1.542628       0              4.4195011      31.175791    
     60500   2.8741811      1.4448148      0              4.3118105      29.894995    
     61000   2.7718879      1.4972395      0              4.2621976      30.227734    
     61500   2.8346322      1.4649198      0              4.2924654      29.717906    
     62000   2.6993352      1.4926367      0              4.1852235      29.507488    
     62500   3.1157178      1.3437372      0              4.4516657      28.376414    
     63000   2.5051207      1.3845008      0              3.8833587      27.965716    
     63500   2.5535319      1.3267565      0              3.8739046      27.826752    
     64000   2.6221735      1.2439054      0              3.8595234      27.552984    
     64500   2.6761129      1.3525504      0              4.0219729      27.907485    
     65000   2.6509326      1.2450161      0              3.8893214      26.591462    
     65500   2.5879355      1.2263983      0              3.807864       26.037579    
     66000   2.4589993      1.3422178      0              3.7950696      27.694233    
     66500   2.401118       1.3046816      0              3.6997968      27.279175    
     67000   2.4535445      1.4038739      0              3.8512846      28.080092    
     67500   2.4989931      1.4592605      0              3.9520061      29.441958    
     68000   2.6335269      1.4177089      0              4.044652       28.473099    
     68500   2.5600785      1.3638518      0              3.9175302      28.199449    
     69000   2.5377807      1.2181576      0              3.7495938      26.528341    
     69500   2.4277519      1.3184729      0              3.7401554      27.795194    
     70000   2.5404022      1.1916795      0              3.7257307      25.061504    
     70500   2.6119187      1.0117137      0              3.6171027      22.757462    
     71000   2.429782       1.2090921      0              3.6327997      25.920529    
     71500   2.6120152      1.1589894      0              3.7644746      25.572335    
     72000   2.4738448      1.1927946      0              3.6604547      24.979895    
     72500   2.288156       1.1608877      0              3.4433233      25.52444     
     73000   2.1919807      1.1890714      0              3.3755722      25.615063    
     73500   2.2399099      1.1846463      0              3.4189564      25.801227    
     74000   2.0805254      1.2936989      0              3.369023       26.59174     
     74500   2.3742256      1.1825136      0              3.5508036      25.739671    
     75000   2.3814189      1.210444       0              3.5859093      25.728913    
     75500   2.303284       1.072183       0              3.3697088      24.08073     
     76000   2.1896092      0.94194047     0              3.1260757      21.725797    
     76500   2.2093512      1.0520394      0              3.2558672      23.523362    
     77000   2.1802177      1.1392709      0              3.314038       24.738746    
     77500   2.2585218      1.0819089      0              3.3347844      23.981985    
     78000   2.2423756      1.1728798      0              3.4096495      25.21626     
     78500   2.1417664      1.0336633      0              3.1700753      23.278686    
     79000   2.1992547      0.96892184     0              3.1626784      22.218533    
     79500   2.1083023      1.0129805      0              3.1160121      22.175495    
     80000   2.1192062      1.0882454      0              3.2021536      23.77407     
     80500   2.1574096      1.119466       0              3.271482       23.5913      
     81000   2.1674935      0.97378373     0              3.1358585      22.60782     
     81500   1.967209       0.94109091     0              2.9033819      21.429604    
     82000   2.1166023      0.8419659      0              2.9532767      21.076961    
     82500   2.0293292      0.99224512     0              3.016501       22.21681     
     83000   2.0668471      0.8057247      0              2.8674047      19.46431     
     83500   1.9197794      0.72506354     0              2.6400435      18.047901    
     84000   2.0539806      0.89517736     0              2.944023       20.886531    
     84500   2.1438842      0.9438622      0              3.0823866      21.295433    
     85000   2.1400766      0.82693013     0              2.9616566      20.239869    
     85500   2.1337207      0.91300231     0              3.0413887      21.101727    
     86000   2.0767862      0.89437751     0              2.9659718      21.373923    
     86500   1.9504153      0.96902351     0              2.9145628      21.867018    
     87000   2.0142722      0.88902707     0              2.8982636      20.837289    
     87500   1.9477946      0.99819753     0              2.9411226      22.444352    
     88000   1.9237201      1.078084       0              2.9969948      24.260619    
     88500   1.9677934      0.92248384     0              2.8853578      22.318475    
     89000   1.8445494      0.83484782     0              2.6747858      19.79614     
     89500   1.8737147      0.74490607     0              2.6139365      18.347806    
     90000   1.7903654      0.69053808     0              2.4764276      17.547829    
     90500   1.7366797      0.82512603     0              2.5574641      19.884853    
     91000   1.8019584      0.72319975     0              2.5206532      18.414958    
     91500   1.7616855      0.75525991     0              2.5125412      18.731995    
     92000   1.7181833      0.79351766     0              2.5074055      19.351802    
     92500   1.7951985      0.66985367     0              2.4605642      17.103588    
     93000   1.7671353      0.71738112     0              2.4800985      17.522482    
     93500   1.7020804      0.81021138     0              2.5080366      19.366465    
     94000   1.6786515      0.8166328      0              2.4910876      19.450285    
     94500   1.6732104      0.77287244     0              2.4418999      18.312546    
     95000   1.6549565      0.75740028     0              2.4082194      18.666282    
     95500   1.799178       0.75187363     0              2.5465537      18.383997    
     96000   1.7421371      0.762027       0              2.4998087      18.387565    
     96500   1.6935436      0.74463059     0              2.4339404      17.976446    
     97000   1.6265003      0.70753239     0              2.3299664      17.814395    
     97500   1.7599528      0.67858556     0              2.4341385      16.841966    
     98000   1.627545       0.73332045     0              2.3567965      17.980129    
     98500   1.5794513      0.74125074     0              2.3167535      18.363163    
     99000   1.496841       0.67970602     0              2.1728049      16.282412    
     99500   1.5085274      0.62025071     0              2.1250068      15.994118    
    100000   1.4027784      0.65922442     0              2.0584958      16.480342    
    100500   1.3907036      0.61208776     0              1.9993146      15.672812    
    101000   1.5288541      0.53542329     0              2.0604552      14.729452    
    101500   1.4148733      0.59915053     0              2.0104867      15.645891    
    102000   1.5296147      0.5733788      0              2.0991694      15.466469    
    102500   1.470696       0.6421039      0              2.1091232      16.110728    
    103000   1.4982271      0.62585828     0              2.1203398      15.700694    
    103500   1.4863745      0.62271712     0              2.1053757      15.70675     
    104000   1.4175627      0.53528872     0              1.9493075      14.830866    
    104500   1.4381134      0.54567443     0              1.9801926      14.962647    
    105000   1.346218       0.592241       0              1.9350934      15.342961    
    105500   1.3300758      0.52739202     0              1.8541426      14.137197    
    106000   1.3304018      0.5000316      0              1.8271074      13.573173    
    106500   1.1787584      0.52943164     0              1.7052432      13.66082     
    107000   1.2220274      0.51851133     0              1.7374836      13.716924    
    107500   1.2386693      0.548282       0              1.7838546      14.733312    
    108000   1.2596573      0.57020388     0              1.826712       14.423855    
    108500   1.2550577      0.52899011     0              1.7809101      14.057977    
    109000   1.262642       0.4470806      0              1.706566       13.10122     
    109500   1.2730055      0.49489707     0              1.7647201      13.724215    
    110000   1.3028539      0.46101234     0              1.7606091      13.372865    
    110500   1.2289323      0.59820994     0              1.8240699      15.666569    
    111000   1.21324        0.5365287      0              1.7467356      14.02141     
    111500   1.211628       0.52923333     0              1.7378323      14.03213     
    112000   1.2273162      0.55270851     0              1.7769565      14.631964    
    112500   1.2630715      0.46270156     0              1.7226154      13.272476    
    113000   1.2719507      0.40340018     0              1.672171       12.239645    
    113500   1.1934862      0.47367081     0              1.6641733      12.802829    
    114000   1.0872261      0.4231718      0              1.5076798      12.2619      
    114500   1.0930153      0.37526887     0              1.4655517      11.373073    
    115000   1.048365       0.41380529     0              1.4595494      12.192814    
    115500   1.0950307      0.42233262     0              1.5146257      12.225245    
    116000   1.0817373      0.38574028     0              1.4647733      11.608833    
    116500   1.0493115      0.37340496     0              1.4200932      11.421181    
    117000   0.98813305     0.3573806      0              1.3430433      10.866916    
    117500   1.0054717      0.39259047     0              1.3955485      11.251207    
    118000   1.0438041      0.38867006     0              1.4298647      11.816525    
    118500   1.0029504      0.37506397     0              1.375507       11.133133    
    119000   0.94278497     0.3892561      0              1.3296841      11.3048      
    119500   1.0226691      0.32805719     0              1.3481696      10.06045     
    120000   0.96032626     0.40184942     0              1.3597749      11.596081    
    120500   1.0868982      0.31035795     0              1.3945389      10.424272    
    121000   0.99324213     0.38178125     0              1.3725403      11.619165    
    121500   0.8836337      0.35471781     0              1.2361424      10.354441    
    122000   0.89556712     0.27100029     0              1.1643285      8.9569336    
    122500   0.88408919     0.28673141     0              1.1686104      9.4078577    
    123000   0.84772427     0.30740981     0              1.1530148      10.059133    
    123500   0.87327825     0.29693723     0              1.1680323      9.6541075    
    124000   0.78204777     0.3342526      0              1.1143452      10.054593    
    124500   0.74033596     0.31550975     0              1.0539949      9.9820338    
    125000   0.81583226     0.274762       0              1.0885547      9.2871651    
    125500   0.78759049     0.25420756     0              1.0398291      8.6125589    
    126000   0.79767857     0.24963052     0              1.0453149      8.6656336    
    126500   0.82971343     0.24153345     0              1.0691726      8.1451914    
    127000   0.79716189     0.32417772     0              1.1193467      10.090562    
    127500   0.79741482     0.27105636     0              1.0664776      8.8505077    
    128000   0.74394767     0.30122465     0              1.0433124      9.3359118    
    128500   0.72326899     0.2507006      0              0.97216142     8.3136974    
    129000   0.70036163     0.23694215     0              0.93555288     7.8940507    
    129500   0.71045134     0.22778052     0              0.93645574     7.7190639    
    130000   0.68504947     0.26338396     0              0.94672081     8.8829531    
    130500   0.74620907     0.22279566     0              0.96713921     7.8887896    
    131000   0.70266592     0.21224164     0              0.9131509      7.6014688    
    131500   0.6427202      0.222002       0              0.8631154      7.8472874    
    132000   0.6191204      0.21124043     0              0.82881303     7.434297     
    132500   0.58479465     0.19554133     0              0.77887399     7.0228223    
    133000   0.57460747     0.17463436     0              0.74780531     6.5807519    
    133500   0.57148939     0.14376425     0              0.71382492     5.53769      
    134000   0.53496486     0.14482421     0              0.67845166     5.8622253    
    134500   0.51398975     0.17412326     0              0.68682804     6.3589789    
    135000   0.5403472      0.15860524     0              0.69760157     6.2221008    
    135500   0.53714946     0.1429177      0              0.67872429     5.8069908    
    136000   0.52023466     0.16960296     0              0.68853704     6.2134991    
    136500   0.56797628     0.15113474     0              0.71769108     6.0900056    
    137000   0.51223539     0.12747627     0              0.63843107     5.3036627    
    137500   0.47793026     0.13159635     0              0.60833178     5.2983692    
    138000   0.48403167     0.11496105     0              0.59778264     5.0205575    
    138500   0.46321248     0.12481572     0              0.58687017     5.3008691    
    139000   0.43508719     0.12055897     0              0.55455844     5.2934467    
    139500   0.4186302      0.1114497      0              0.52903333     4.8973976    
    140000   0.38190428     0.12145943     0              0.50240895     5.2055153    
    140500   0.37457267     0.11026575     0              0.48390199     4.9700515    
    141000   0.37906485     0.089867726    0              0.46798491     4.2096186    
    141500   0.37888        0.081396973    0              0.45932977     4.0188731    
    142000   0.34065188     0.10252112     0              0.44232137     4.317625     
    142500   0.33078908     0.087364387    0              0.41732649     4.0366113    
    143000   0.30984258     0.083054189    0              0.39212216     3.8927717    
    143500   0.28399215     0.081237564    0              0.36451973     3.9275454    
    144000   0.28944809     0.05863243     0              0.3473569      3.1878608    
    144500   0.2595191      0.053218461    0              0.31208876     2.9245745    
    145000   0.2388369      0.068028824    0              0.30626864     3.2438167    
    145500   0.22682014     0.067393443    0              0.29364653     3.443903     
    146000   0.22880489     0.070110446    0              0.29834332     3.5267544    
    146500   0.20110713     0.044243051    0              0.24484742     2.6942891    
    147000   0.18782082     0.04439995     0              0.23175122     2.559412     
    147500   0.1825449      0.035401517    0              0.21749006     2.2435965    
    148000   0.17080629     0.025233965    0              0.19561324     1.8033756    
    148500   0.15857668     0.027902334    0              0.18608257     1.9874251    
    149000   0.12700469     0.031871539    0              0.15855871     2.0243004    
    149500   0.12982846     0.023258546    0              0.15276244     1.6193809    
    150000   0.096195876    0.019003482    0              0.11495887     1.5112955    
Loop time of 4.20427 on 4 procs for 100000 steps with 400 atoms

Performance: 20550538.430 tau/day, 23785.345 timesteps/s, 9.514 Matom-step/s
49.9% CPU use with 4 MPI tasks x 1 OpenMP threads

MPI task timing breakdown:
Section |  min time  |  avg time  |  max time  |%varavg| %total
---------------------------------------------------------------
Pair    | 0.4423     | 0.55692    | 0.69633    |  12.1 | 13.25
Neigh   | 0.40654    | 0.44645    | 0.50878    |   6.3 | 10.62
Comm    | 2.0111     | 2.1636     | 2.3176     |   7.7 | 51.46
Output  | 0.06343    | 0.06362    | 0.06413    |   0.1 |  1.51
Modify  | 0.48576    | 0.57241    | 0.63326    |   7.1 | 13.62
Other   |            | 0.4013     |            |       |  9.54

Nlocal:            100 ave         101 max          99 min
Histogram: 1 0 0 0 0 2 0 0 0 1
Nghost:             58 ave          60 max          55 min
Histogram: 1 0 0 0 0 0 1 0 1 1
Neighs:          292.5 ave         297 max         288 min
Histogram: 1 0 1 0 0 0 0 1 0 1

Total # of neighbors = 1170
Ave neighs/atom = 2.925
Neighbor list builds = 23981
Dangerous builds = 0
Total wall time: 0:00:06
