LAMMPS (15 Sep 2022)
OMP_NUM_THREADS environment is not set. Defaulting to 1 thread. (src/comm.cpp:98)
  using 1 OpenMP thread(s) per MPI task
Lattice spacing in x,y,z = 1 1 1
Created orthogonal box = (0 0 -0.5) to (20 20 0.5)
  8 by 8 by 1 MPI processor grid
Created 400 atoms
  using lattice units in orthogonal box = (0 0 -0.5) to (20 20 0.5)
  create_atoms CPU = 0.001 seconds
Generated 0 of 0 mixed pair_coeff terms from geometric mixing rule
Neighbor list info ...
  update: every = 1 steps, delay = 0 steps, check = yes
  max neighbors/atom: 2000, page size: 100000
  master list distance cutoff = 1.3
  ghost atom cutoff = 1.3
  binsize = 0.65, bins = 31 31 2
  1 neighbor lists, perpetual/occasional/extra = 1 0 0
  (1) pair lj/cut, perpetual
      attributes: half, newton on
      pair build: half/bin/atomonly/newton
      stencil: half/bin/2d
      bin: standard
Setting up Verlet run ...
  Unit style    : lj
  Current step  : 0
  Time step     : 0.01
Per MPI rank memory allocation (min/avg/max) = 3.047 | 3.047 | 3.047 Mbytes
   Step          Temp          E_pair         E_mol          TotEng         Press     
         0   3              0              0              2.9925         2.9925       
       500   3.1230788      1.8208735      0              4.9361446      33.607139    
      1000   3.2387898      1.6025608      0              4.8332536      31.497447    
      1500   3.0626661      1.677          0              4.7320095      32.793894    
      2000   3.2396769      1.6430497      0              4.8746275      31.947474    
      2500   3.2561949      1.5953132      0              4.8433676      31.673757    
      3000   3.3214592      1.5420886      0              4.8552442      31.097262    
      3500   3.2497083      1.6020422      0              4.8436263      31.981708    
      4000   2.9916141      1.8666801      0              4.8508152      34.774988    
      4500   3.2427091      1.7419005      0              4.9765028      33.815104    
      5000   3.2258585      1.6275563      0              4.8453501      32.073109    
      5500   3.0202212      1.6657498      0              4.6784205      32.638676    
      6000   3.4326857      1.8167318      0              5.2408358      35.011411    
      6500   3.0095274      1.6652607      0              4.6672642      32.904123    
      7000   3.0525192      1.3910453      0              4.4359332      28.386267    
      7500   2.7041205      1.7805788      0              4.477939       33.24207     
      8000   2.9857622      1.5624393      0              4.5407371      30.654365    
      8500   2.9951139      1.5277218      0              4.5153478      31.071056    
      9000   2.9970574      1.5351256      0              4.5246904      30.875589    
      9500   2.9718801      1.5096144      0              4.4740648      30.524698    
     10000   2.9690903      1.5486926      0              4.5103602      30.730416    
     10500   2.9574474      1.642348       0              4.5924018      32.125913    
     11000   3.086458       1.5595402      0              4.638282       31.120154    
     11500   3.1289685      1.411032       0              4.5321781      29.004265    
     12000   2.9207477      1.6035491      0              4.5169949      31.713337    
     12500   3.1573216      1.7223542      0              4.8717825      33.317269    
     13000   3.0678042      1.7345392      0              4.7946739      33.186679    
     13500   3.0506493      1.4801055      0              4.5231281      30.384599    
     14000   3.089841       1.6361709      0              4.7182873      32.399106    
     14500   3.2999158      1.3220102      0              4.6136761      28.047375    
     15000   3.0460033      1.74186        0              4.7802483      33.842086    
     15500   3.0037691      1.5453829      0              4.5416426      31.322606    
     16000   3.0451626      1.4209553      0              4.4585049      29.461645    
     16500   2.9570846      1.6349295      0              4.5846213      31.445045    
     17000   2.7390722      1.5739253      0              4.3061498      30.815914    
     17500   3.0263687      1.6548272      0              4.6736301      31.943433    
     18000   3.392127       1.642176       0              5.0258227      32.705053    
     18500   3.0459186      1.8046644      0              4.8429683      33.992024    
     19000   2.8932364      1.4736718      0              4.3596752      29.958337    
     19500   2.9006539      1.6582951      0              4.5516973      32.834512    
     20000   3.2595979      1.7692513      0              5.0207003      34.389215    
     20500   2.8338243      1.525671       0              4.3524107      30.583341    
     21000   2.876541       1.562673       0              4.4320226      30.764166    
     21500   3.0750585      1.4397308      0              4.5071017      29.804609    
     22000   2.9058547      1.6960275      0              4.5946176      32.313728    
     22500   2.9617333      1.6044637      0              4.5587927      31.071514    
     23000   3.182348       1.4702002      0              4.6445923      30.328171    
     23500   2.8543262      1.4963074      0              4.3434977      29.472516    
     24000   2.9437822      1.6610202      0              4.5974429      33.193081    
     24500   3.0893975      1.5500246      0              4.6316985      31.400548    
     25000   3.1695188      1.7209042      0              4.8824992      33.252788    
     25500   2.9303915      1.3153034      0              4.2383689      28.014641    
     26000   3.1326155      1.550274       0              4.675058       31.079805    
     26500   3.062932       1.6083638      0              4.6636385      31.561037    
     27000   3.1391807      1.6389015      0              4.7702342      32.157968    
     27500   2.7923203      1.4072827      0              4.1926222      29.051224    
     28000   2.9484301      1.5689935      0              4.5100525      31.501788    
     28500   2.9002003      1.6248762      0              4.517826       31.380606    
     29000   3.2148742      1.6285921      0              4.8354291      33.072239    
     29500   3.1645969      1.5583842      0              4.7150696      31.258538    
     30000   3.0348837      1.6556484      0              4.6829449      32.287496    
     30500   2.9388333      1.8742447      0              4.8057309      34.486117    
     31000   3.0016736      1.4728888      0              4.4670582      30.123236    
     31500   2.9511492      1.6352886      0              4.5790599      32.138825    
     32000   3.0121276      1.552215       0              4.5568122      31.19859     
     32500   3.1920539      1.4147949      0              4.5988687      29.286586    
     33000   3.1418071      1.4174079      0              4.5513606      29.15192     
     33500   3.2456335      1.5686977      0              4.8062171      31.366286    
     34000   2.8467489      1.6248555      0              4.4644875      32.473088    
     34500   2.8955653      1.6539402      0              4.5422666      31.823501    
     35000   2.8583156      1.290621       0              4.1417908      27.828254    
     35500   3.084869       1.2883722      0              4.3655289      27.814412    
     36000   2.9067101      1.6636816      0              4.5631249      32.330744    
     36500   3.0501286      1.7106475      0              4.7531508      32.961918    
     37000   2.5646535      1.5961239      0              4.1543658      31.160186    
     37500   2.8381938      1.6082955      0              4.4393938      32.055343    
     38000   2.9426086      1.6127192      0              4.5479713      31.539238    
     38500   3.175456       1.6706554      0              4.8381727      32.855087    
     39000   2.9036071      1.2936428      0              4.1899909      27.936939    
     39500   2.890697       1.5286694      0              4.4121397      30.514274    
     40000   2.8375842      1.5287595      0              4.3592498      30.457094    
     40500   3.0983834      1.5137757      0              4.6044131      30.656065    
     41000   3.0557604      1.7315257      0              4.7796467      33.654077    
     41500   3.2626368      1.3978937      0              4.6523738      28.929449    
     42000   3.0937179      1.3142861      0              4.4002697      28.170752    
     42500   2.8799347      1.6242344      0              4.4969693      31.89889     
     43000   3.0113467      1.3479575      0              4.3517758      28.850051    
     43500   3.0656532      1.5308705      0              4.5888596      30.07737     
     44000   3.0489265      1.8606157      0              4.9019199      33.858421    
     44500   3.2949564      1.6091621      0              4.895881       32.064565    
     45000   2.8183441      1.6559052      0              4.4672034      32.93616     
     45500   3.1870085      1.5547428      0              4.7337837      31.467008    
     46000   2.9629479      1.3317798      0              4.2873204      28.673209    
     46500   2.8492623      1.8525512      0              4.6946903      34.942559    
     47000   2.9738949      1.6921516      0              4.6586117      33.264104    
     47500   3.0029807      1.6901519      0              4.6856251      33.455005    
     48000   3.2374282      1.6310499      0              4.8603845      32.042429    
     48500   3.0289713      1.6317876      0              4.6531866      32.091489    
     49000   3.2998841      1.5321546      0              4.823789       31.471468    
     49500   2.9571532      1.4728136      0              4.4225739      29.828777    
     50000   2.9819222      1.5870705      0              4.5615379      31.374881    
Loop time of 1.65525 on 64 procs for 50000 steps with 400 atoms

Performance: 26098805.338 tau/day, 30206.951 timesteps/s, 12.083 Matom-step/s
99.5% CPU use with 64 MPI tasks x 1 OpenMP threads

MPI task timing breakdown:
Section |  min time  |  avg time  |  max time  |%varavg| %total
---------------------------------------------------------------
Pair    | 0.013283   | 0.014341   | 0.01567    |   0.4 |  0.87
Neigh   | 0.018753   | 0.019391   | 0.021585   |   0.4 |  1.17
Comm    | 0.68274    | 0.76644    | 0.92471    |   7.9 | 46.30
Output  | 0.0036629  | 0.0038579  | 0.0044955  |   0.2 |  0.23
Modify  | 0.26126    | 0.50915    | 0.65645    |  14.7 | 30.76
Other   |            | 0.3421     |            |       | 20.67

Nlocal:           6.25 ave           9 max           4 min
Histogram: 1 0 14 0 23 0 21 0 4 1
Nghost:        19.6562 ave          25 max          16 min
Histogram: 4 4 7 14 16 11 3 4 0 1
Neighs:        16.6406 ave          27 max          11 min
Histogram: 9 8 7 13 10 11 4 0 1 1

Total # of neighbors = 1065
Ave neighs/atom = 2.6625
Neighbor list builds = 16891
Dangerous builds = 0
Generated 0 of 0 mixed pair_coeff terms from geometric mixing rule
Setting up Verlet run ...
  Unit style    : lj
  Current step  : 50000
  Time step     : 0.01
Per MPI rank memory allocation (min/avg/max) = 3.068 | 3.068 | 3.068 Mbytes
   Step          Temp          E_pair         E_mol          TotEng         Press     
     50000   2.9819222      1.5870705      0              4.5615379      31.374881    
     50500   3.1128205      1.5558991      0              4.6609375      30.930257    
     51000   3.0357695      1.4563133      0              4.4844934      30.074747    
     51500   3.0106041      1.363064       0              4.3661417      28.555564    
     52000   2.6696806      1.8053109      0              4.4683174      34.791085    
     52500   2.6147157      1.6596294      0              4.2678083      31.73397     
     53000   2.9072445      1.563751       0              4.4637274      31.337912    
     53500   3.1217583      1.4066756      0              4.5206295      29.383698    
     54000   2.9463634      1.4772261      0              4.4162236      30.258004    
     54500   2.8072501      1.5992389      0              4.3994709      31.411643    
     55000   2.9423518      1.5442853      0              4.4792812      31.23088     
     55500   2.8545281      1.420605       0              4.2679967      29.111411    
     56000   2.7978894      1.4254883      0              4.216383       29.016829    
     56500   2.6766871      1.5107965      0              4.1807919      30.427588    
     57000   2.8236808      1.6037748      0              4.4203963      30.875481    
     57500   2.8226026      1.5779655      0              4.3935116      30.613845    
     58000   2.765293       1.4675215      0              4.2259013      30.210047    
     58500   2.7510617      1.4647668      0              4.2089508      30.042539    
     59000   2.7153982      1.4778936      0              4.1865033      29.463208    
     59500   2.7973101      1.448061       0              4.2383778      28.606441    
     60000   2.7782836      1.6163565      0              4.3876944      31.558616    
     60500   2.725805       1.5323914      0              4.2513819      30.1672      
     61000   2.7925287      1.4950838      0              4.2806312      30.142827    
     61500   2.5704176      1.334232       0              3.8982235      28.342631    
     62000   2.5624581      1.3901108      0              3.9461627      29.294063    
     62500   3.0332055      1.4836067      0              4.5092292      30.32853     
     63000   2.7475713      1.381399       0              4.1221014      28.414084    
     63500   2.6218644      1.4238247      0              4.0391345      28.63996     
     64000   2.5958577      1.4624556      0              4.0518237      29.294526    
     64500   2.6243133      1.4606162      0              4.0783688      29.478793    
     65000   2.6304915      1.3733023      0              3.9972175      28.663233    
     65500   2.5720502      1.3894305      0              3.9550506      28.695708    
     66000   2.4860494      1.3045412      0              3.7843755      27.354364    
     66500   2.440041       1.2562998      0              3.6902408      26.563405    
     67000   2.32139        1.3800438      0              3.6956303      28.646721    
     67500   2.5136723      1.2700093      0              3.7773974      26.913692    
     68000   2.4939089      1.1912318      0              3.6789059      25.919881    
     68500   2.427305       1.2230449      0              3.6442816      26.211405    
     69000   2.4442489      1.258378       0              3.6965163      26.963862    
     69500   2.6146632      1.2736501      0              3.8817767      26.560599    
     70000   2.4920425      1.231826       0              3.7176385      26.344224    
     70500   2.3246856      1.3094457      0              3.6283196      27.268986    
     71000   2.4968064      1.3396571      0              3.8302215      27.463595    
     71500   2.5616097      1.2617491      0              3.8169548      26.492569    
     72000   2.3558581      1.1754185      0              3.5253869      25.907736    
     72500   2.2686523      1.2535162      0              3.5164968      26.377746    
     73000   2.0894947      1.3427979      0              3.4270689      27.899226    
     73500   2.2468321      1.242797       0              3.484012       26.254554    
     74000   2.5172132      1.0569414      0              3.5678615      23.525223    
     74500   2.2976502      1.0953115      0              3.3872175      24.249024    
     75000   2.2517466      1.0692004      0              3.3153176      23.573143    
     75500   2.0924581      1.0760813      0              3.1633082      23.491507    
     76000   2.3269227      0.91642504     0              3.2375304      21.604716    
     76500   2.304666       0.99627439     0              3.2951788      23.134284    
     77000   2.0512261      1.2275155      0              3.2736135      25.57311     
     77500   2.1824371      1.051823       0              3.2288041      23.259379    
     78000   2.1999457      0.98424643     0              3.1786923      22.12754     
     78500   2.1071448      0.98547826     0              3.0873552      23.20721     
     79000   2.1785349      1.0221225      0              3.195211       22.861401    
     79500   2.175065       0.96229538     0              3.1319227      22.013813    
     80000   2.2361273      1.0028138      0              3.2333508      23.018541    
     80500   2.2345642      1.0265088      0              3.2554866      22.863086    
     81000   2.2121424      1.1264993      0              3.3331113      24.304707    
     81500   2.1468765      0.96497134     0              3.1064807      22.026015    
     82000   2.1468303      0.97092326     0              3.1123865      22.621128    
     82500   2.2097237      0.84975953     0              3.053959       20.656905    
     83000   2.1105639      0.96855132     0              3.0738388      21.799372    
     83500   2.2403577      1.0228347      0              3.2575916      22.638561    
     84000   2.0043664      0.9472181      0              2.9465736      22.117268    
     84500   1.9791127      0.90819565     0              2.8823606      20.968745    
     85000   2.0512337      0.94270259     0              2.9888082      21.91903     
     85500   2.0089452      0.85877411     0              2.8626969      20.428449    
     86000   1.906037       0.85769453     0              2.7589665      20.540938    
     86500   1.8259901      1.0029742      0              2.8243994      22.194336    
     87000   1.9242561      0.89162214     0              2.8110676      20.975299    
     87500   1.8223851      0.75895686     0              2.576786       18.294301    
     88000   1.830286       0.83209092     0              2.6578012      19.736395    
     88500   1.9386439      0.76167396     0              2.6954713      18.518808    
     89000   1.8395924      0.80921857     0              2.644212       18.982031    
     89500   1.8062441      0.72931303     0              2.5310415      17.806734    
     90000   1.8170166      0.85470298     0              2.667177       20.171658    
     90500   1.8616958      1.0333567      0              2.8903982      23.050425    
     91000   1.9191287      0.84111681     0              2.7554477      19.794546    
     91500   1.7804185      0.97766015     0              2.7536276      21.806087    
     92000   1.8321776      0.69380012     0              2.5213972      17.562005    
     92500   1.9310031      0.64232654     0              2.5685021      16.768866    
     93000   1.8632528      0.81294419     0              2.6715389      18.865035    
     93500   1.8791818      0.83861306     0              2.7130969      19.483073    
     94000   1.7313871      0.88024511     0              2.6073037      20.261646    
     94500   1.6905219      0.84388882     0              2.5301844      19.715805    
     95000   1.6921568      0.85592763     0              2.5438541      19.848106    
     95500   1.7219295      0.75477277     0              2.4723975      18.894629    
     96000   1.7462597      0.77534287     0              2.517237       18.870392    
     96500   1.844876       0.74618856     0              2.5864523      18.266338    
     97000   1.5782785      0.72920074     0              2.3035335      17.952444    
     97500   1.6072524      0.7203019      0              2.3235361      18.062796    
     98000   1.6136593      0.63643239     0              2.2460575      16.535002    
     98500   1.5639254      0.64181059     0              2.2018262      16.689709    
     99000   1.5389159      0.57655252     0              2.1116211      15.448257    
     99500   1.4411146      0.6323165      0              2.0698283      16.257486    
    100000   1.4913259      0.56265651     0              2.0502541      14.798705    
    100500   1.4951559      0.68986848     0              2.1812865      16.734771    
    101000   1.5256874      0.62440805     0              2.1462812      16.19644     
    101500   1.5460732      0.5074858      0              2.0496938      13.78142     
    102000   1.4864557      0.54038712     0              2.0231267      14.488092    
    102500   1.3870885      0.60216701     0              1.9857878      15.799677    
    103000   1.389544       0.67171289     0              2.057783       16.826562    
    103500   1.355802       0.5234773      0              1.8758898      14.238906    
    104000   1.3716824      0.51588318     0              1.8841363      14.197853    
    104500   1.4028443      0.5592344      0              1.9585715      14.882617    
    105000   1.4443053      0.52934202     0              1.9700365      14.226555    
    105500   1.4812327      0.60986327     0              2.0873929      16.072846    
    106000   1.451617       0.6041092      0              2.0520972      15.356717    
    106500   1.4166425      0.55832126     0              1.9714222      14.927077    
    107000   1.3503064      0.59787837     0              1.944809       15.395791    
    107500   1.3699644      0.48214258     0              1.848682       13.566028    
    108000   1.3603437      0.46135561     0              1.8182985      13.245338    
    108500   1.2521453      0.52070941     0              1.7697243      13.683583    
    109000   1.2424254      0.53064438     0              1.7699637      14.000611    
    109500   1.2493313      0.4929806      0              1.7391885      13.424207    
    110000   1.2596975      0.48613218     0              1.7426804      13.353565    
    110500   1.1555366      0.4300776      0              1.5827253      12.271141    
    111000   1.1933726      0.40836483     0              1.598754       11.925651    
    111500   1.1703781      0.45453933     0              1.6219915      12.696186    
    112000   1.1117927      0.48435336     0              1.5933666      12.899545    
    112500   1.1694863      0.47357712     0              1.6401397      12.899421    
    113000   1.2219413      0.4325957      0              1.6514821      12.837561    
    113500   1.2370303      0.43081181     0              1.6647495      12.463589    
    114000   1.1612076      0.57425776     0              1.7325623      14.62709     
    114500   1.1646772      0.44616869     0              1.6079342      12.347386    
    115000   1.1683743      0.46013876     0              1.6255921      13.125023    
    115500   1.1971845      0.51992795     0              1.7141195      13.962817    
    116000   1.1644728      0.43785316     0              1.5994148      12.913434    
    116500   1.1521079      0.43327719     0              1.5825049      12.37175     
    117000   1.1218619      0.40352078     0              1.522578       12.192684    
    117500   1.042865       0.43183312     0              1.472091       12.221758    
    118000   1.0580891      0.38001501     0              1.4354589      11.679244    
    118500   1.0023712      0.401852       0              1.4017173      11.572679    
    119000   1.0050101      0.45679909     0              1.4592967      12.793194    
    119500   1.047386       0.37784751     0              1.4226151      10.926277    
    120000   0.9621422      0.36969136     0              1.3294282      11.141482    
    120500   1.0103889      0.34400501     0              1.351868       10.364803    
    121000   0.95147818     0.32819176     0              1.2772913      10.590733    
    121500   0.92013899     0.29930482     0              1.2171435      9.5565226    
    122000   0.90112372     0.33188695     0              1.2307579      10.102138    
    122500   0.89346615     0.32080507     0              1.2120376      9.7579652    
    123000   0.91584073     0.30618946     0              1.2197406      9.8927582    
    123500   0.87350656     0.32233795     0              1.1936607      10.256729    
    124000   0.95441951     0.24101579     0              1.1930493      8.6130455    
    124500   0.91488773     0.23411355     0              1.1467141      8.6467064    
    125000   0.78099322     0.29454601     0              1.0735868      9.533832     
    125500   0.75740033     0.29371143     0              1.0492183      9.6246196    
    126000   0.82847896     0.24606456     0              1.0724723      8.4211583    
    126500   0.80911865     0.23081701     0              1.0379129      8.5146559    
    127000   0.75571755     0.26369454     0              1.0175228      8.6153351    
    127500   0.77496501     0.25554172     0              1.0285693      8.8647668    
    128000   0.73567167     0.25579017     0              0.98962265     8.8131227    
    128500   0.67037997     0.21798375     0              0.88668777     7.7875555    
    129000   0.68530141     0.20948241     0              0.89307056     7.6119704    
    129500   0.68145395     0.20994705     0              0.88969737     7.4894054    
    130000   0.65181992     0.24589624     0              0.89608661     8.0949789    
    130500   0.66152848     0.22458848     0              0.88446314     7.5980395    
    131000   0.66063071     0.20051041     0              0.85948953     7.390521     
    131500   0.64198411     0.23916508     0              0.87954423     7.9359867    
    132000   0.61219929     0.20697622     0              0.817645       7.6319973    
    132500   0.61675104     0.19033757     0              0.80554673     7.1745705    
    133000   0.6004619      0.1866578      0              0.78561854     6.7957425    
    133500   0.57848657     0.17131586     0              0.74835622     6.5376083    
    134000   0.52759349     0.18300577     0              0.70928027     6.6288954    
    134500   0.54467845     0.1529479      0              0.69626466     6.2473384    
    135000   0.51148788     0.17272566     0              0.68293482     6.6758519    
    135500   0.48034218     0.18136009     0              0.66050141     6.7012019    
    136000   0.49447982     0.15820125     0              0.65144487     6.0012582    
    136500   0.4469437      0.15739184     0              0.60321818     6.2305343    
    137000   0.49114281     0.11450986     0              0.60442481     4.8203861    
    137500   0.42984073     0.15708167     0              0.5858478      6.1464799    
    138000   0.46919535     0.10485407     0              0.57287644     4.5555904    
    138500   0.45950404     0.11980006     0              0.57815533     5.0140016    
    139000   0.46030733     0.1299509      0              0.58910746     5.1379979    
    139500   0.43624734     0.12597528     0              0.56113201     5.3212003    
    140000   0.41556656     0.10950167     0              0.52402932     4.8399121    
    140500   0.39565684     0.11891901     0              0.51358671     5.0913905    
    141000   0.3723955      0.098256464    0              0.46972098     4.1161457    
    141500   0.33556827     0.087252216    0              0.42198156     3.9323648    
    142000   0.32862857     0.094804071    0              0.42261107     4.4390215    
    142500   0.29290285     0.064291003    0              0.3564616      3.2824996    
    143000   0.27594976     0.086620719    0              0.36188061     4.1154866    
    143500   0.28779365     0.066373747    0              0.35344792     3.4259354    
    144000   0.26506686     0.066066397    0              0.33047059     3.4498147    
    144500   0.24722286     0.063873283    0              0.31047808     3.4133211    
    145000   0.2422352      0.048155687    0              0.2897853      2.7751376    
    145500   0.21233949     0.062092297    0              0.27390094     3.1261485    
    146000   0.21298349     0.050268239    0              0.26271927     2.8434979    
    146500   0.21006668     0.044147472    0              0.25368899     2.4876578    
    147000   0.19232317     0.047877481    0              0.23971984     2.7354769    
    147500   0.17297089     0.037630203    0              0.21016867     2.383237     
    148000   0.14636509     0.032100015    0              0.17809919     2.034912     
    148500   0.14807577     0.025627324    0              0.1733329      1.7653615    
    149000   0.11885914     0.023867002    0              0.142429       1.741092     
    149500   0.11575211     0.020330418    0              0.13579315     1.5315978    
    150000   0.10811231     0.019693062    0              0.12753509     1.5490926    
Loop time of 3.0375 on 64 procs for 100000 steps with 400 atoms

Performance: 28444397.947 tau/day, 32921.757 timesteps/s, 13.169 Matom-step/s
99.6% CPU use with 64 MPI tasks x 1 OpenMP threads

MPI task timing breakdown:
Section |  min time  |  avg time  |  max time  |%varavg| %total
---------------------------------------------------------------
Pair    | 0.023741   | 0.026194   | 0.028528   |   0.6 |  0.86
Neigh   | 0.025895   | 0.026927   | 0.029869   |   0.4 |  0.89
Comm    | 1.1372     | 1.3041     | 1.6495     |  12.2 | 42.93
Output  | 0.082845   | 0.083323   | 0.084383   |   0.1 |  2.74
Modify  | 0.44258    | 0.9168     | 1.1931     |  21.4 | 30.18
Other   |            | 0.6802     |            |       | 22.39

Nlocal:           6.25 ave           8 max           4 min
Histogram: 1 0 7 0 0 32 0 23 0 1
Nghost:        19.9844 ave          23 max          18 min
Histogram: 5 0 16 0 25 0 12 0 5 1
Neighs:          18.25 ave          24 max          10 min
Histogram: 2 0 2 5 5 26 1 22 0 1

Total # of neighbors = 1168
Ave neighs/atom = 2.92
Neighbor list builds = 23954
Dangerous builds = 0
Total wall time: 0:00:05
