LAMMPS (15 Sep 2022)
OMP_NUM_THREADS environment is not set. Defaulting to 1 thread. (src/comm.cpp:98)
  using 1 OpenMP thread(s) per MPI task
Lattice spacing in x,y,z = 1.4142136 1.4142136 1.4142136
Created orthogonal box = (0 0 -0.70710678) to (28.284271 28.284271 0.70710678)
  8 by 8 by 1 MPI processor grid
Created 400 atoms
  using lattice units in orthogonal box = (0 0 -0.70710678) to (28.284271 28.284271 0.70710678)
  create_atoms CPU = 0.001 seconds
Generated 0 of 0 mixed pair_coeff terms from geometric mixing rule
Neighbor list info ...
  update: every = 1 steps, delay = 0 steps, check = yes
  max neighbors/atom: 2000, page size: 100000
  master list distance cutoff = 1.3
  ghost atom cutoff = 1.3
  binsize = 0.65, bins = 44 44 3
  1 neighbor lists, perpetual/occasional/extra = 1 0 0
  (1) pair lj/cut, perpetual
      attributes: half, newton on
      pair build: half/bin/atomonly/newton
      stencil: half/bin/2d
      bin: standard
Setting up Verlet run ...
  Unit style    : lj
  Current step  : 0
  Time step     : 0.01
Per MPI rank memory allocation (min/avg/max) = 3.047 | 3.047 | 3.047 Mbytes
   Step          Temp          E_pair         E_mol          TotEng         Press     
         0   3              0              0              2.9925         1.49625      
       500   2.971898       0.1722736      0              3.1367419      3.2756965    
      1000   2.8523873      0.21245707     0              3.0577134      3.5972867    
      1500   2.857811       0.21912701     0              3.0697934      3.4975925    
      2000   2.6886902      0.19954583     0              2.8815143      3.3077496    
      2500   2.9825476      0.25947072     0              3.2345619      3.992056     
      3000   3.1012952      0.2079076      0              3.3014495      3.4760685    
      3500   3.2308307      0.13600717     0              3.3587608      3.1040607    
      4000   3.0575517      0.25037927     0              3.3002871      3.751022     
      4500   3.1553941      0.20370362     0              3.3512092      3.5886309    
      5000   3.2076355      0.16565851     0              3.3652749      3.4248357    
      5500   3.2288187      0.18410649     0              3.4048532      3.4303173    
      6000   2.8002549      0.20894796     0              3.0022022      3.4193556    
      6500   2.9197947      0.20164873     0              3.1141439      3.5301016    
      7000   2.8869501      0.17112896     0              3.0508617      3.2409147    
      7500   2.9414119      0.20124301     0              3.1353014      3.4629252    
      8000   3.0135766      0.20679458     0              3.2128372      3.4493409    
      8500   3.1117614      0.18613636     0              3.2901184      3.3883829    
      9000   3.1307619      0.17367814     0              3.2966131      3.1095868    
      9500   3.1211597      0.13653618     0              3.249893       3.0365419    
     10000   3.2104829      0.22510289     0              3.4275596      3.8075029    
     10500   3.4190084      0.20913662     0              3.6195975      3.8051239    
     11000   3.1649484      0.26217298     0              3.419209       3.9029388    
     11500   3.0600384      0.24904309     0              3.3014314      3.9362029    
     12000   3.0608898      0.17560822     0              3.2288457      3.4019962    
     12500   2.9983084      0.2371192      0              3.2279318      3.8785758    
     13000   2.9781703      0.20570504     0              3.1764299      3.4984408    
     13500   2.948004       0.24584955     0              3.1864835      3.8376592    
     14000   3.0026172      0.16438688     0              3.1594975      3.0955282    
     14500   2.7939022      0.19781336     0              2.9847308      3.2971327    
     15000   2.6730837      0.17430386     0              2.8407048      3.1104631    
     15500   3.0419208      0.22603891     0              3.2603549      3.6695715    
     16000   3.1097474      0.20868627     0              3.3106593      3.6785658    
     16500   3.1789863      0.24041777     0              3.4114566      3.9662329    
     17000   2.9279707      0.18677665     0              3.1074274      3.4349206    
     17500   2.8279212      0.18750223     0              3.0083536      3.4316457    
     18000   3.0240533      0.14718289     0              3.1636761      3.2091223    
     18500   2.7970241      0.21358248     0              3.003614       3.4725357    
     19000   2.8026936      0.20091243     0              2.9965993      3.3718669    
     19500   2.8679141      0.23998616     0              3.1007305      3.5989157    
     20000   2.9003305      0.1961295      0              3.0892092      3.5431185    
     20500   2.6705295      0.25637371     0              2.9202269      3.5990476    
     21000   2.9365512      0.15435659     0              3.0835664      3.0810136    
     21500   3.015866       0.18466686     0              3.1929932      3.3006107    
     22000   3.0320731      0.23614489     0              3.2606378      3.5987597    
     22500   3.1517772      0.31031852     0              3.4542163      4.2882394    
     23000   3.2747433      0.23617772     0              3.5027341      3.8451657    
     23500   3.1557658      0.19319961     0              3.341076       3.4983199    
     24000   3.069008       0.16593555     0              3.227271       3.2453361    
     24500   2.9911823      0.2139765      0              3.1976808      3.5182813    
     25000   2.9813194      0.18891982     0              3.162786       3.3318246    
     25500   2.8150497      0.15478492     0              2.962797       3.0039561    
     26000   2.9186169      0.2610455      0              3.1723659      3.7314912    
     26500   2.8725012      0.27270842     0              3.1380283      3.8350716    
     27000   3.0145605      0.22373471     0              3.2307588      3.7567432    
     27500   3.3831678      0.16029408     0              3.535004       3.3577772    
     28000   3.2126265      0.22693221     0              3.4315271      3.7754089    
     28500   3.0992321      0.20235002     0              3.293834       3.6169338    
     29000   3.0305585      0.20039115     0              3.2233732      3.5118158    
     29500   3.0819993      0.21867063     0              3.2929649      3.6379164    
     30000   3.0366887      0.18547085     0              3.2145678      3.4217944    
     30500   3.0730323      0.22480516     0              3.2901549      3.7290502    
     31000   3.0459562      0.20871495     0              3.2470563      3.4009142    
     31500   3.0442496      0.23032214     0              3.2669611      3.6697381    
     32000   3.0399403      0.21142224     0              3.2437627      3.6009711    
     32500   2.9259149      0.28484798     0              3.2034481      3.9202927    
     33000   3.1160637      0.14251964     0              3.2507932      3.1165312    
     33500   3.0463671      0.22782435     0              3.2665756      3.6430268    
     34000   3.1998632      0.25080111     0              3.4426647      3.9254991    
     34500   3.1435035      0.26806015     0              3.4037049      4.0040189    
     35000   3.0271562      0.24900094     0              3.2685892      3.7331132    
     35500   3.2283911      0.23578694     0              3.4561071      3.659688     
     36000   3.0861311      0.20300221     0              3.281418       3.6030528    
     36500   3.0290218      0.22216031     0              3.2436096      3.7118987    
     37000   3.0598987      0.20487868     0              3.2571277      3.5651795    
     37500   3.0752384      0.1974208      0              3.2649711      3.50301      
     38000   2.8309664      0.21723647     0              3.0411255      3.5349663    
     38500   2.6511327      0.21418519     0              2.85869        3.5186515    
     39000   2.819688       0.16586962     0              2.9785084      3.0674227    
     39500   2.9583201      0.15678407     0              3.1077084      3.0834457    
     40000   2.9580433      0.18583241     0              3.1364806      3.4429608    
     40500   3.3286627      0.14554264     0              3.4658837      3.2518598    
     41000   3.2050888      0.27961265     0              3.4766887      4.0369811    
     41500   3.1629568      0.18313948     0              3.3381889      3.3485119    
     42000   2.9723054      0.25888173     0              3.2237563      3.9662729    
     42500   3.0053133      0.25663512     0              3.2544352      4.0102278    
     43000   3.0130411      0.19408179     0              3.1995903      3.310424     
     43500   3.0937354      0.19548501     0              3.2814861      3.4161203    
     44000   2.9560499      0.23146095     0              3.1801207      3.7317099    
     44500   2.8218592      0.16798212     0              2.9827867      3.0356368    
     45000   2.70855        0.14877176     0              2.8505504      2.9404152    
     45500   3.0725808      0.20091492     0              3.2658143      3.4236627    
     46000   3.0796087      0.23665032     0              3.30856        3.7754687    
     46500   3.159          0.21748413     0              3.3685867      3.5151316    
     47000   3.3092903      0.19737475     0              3.4983918      3.6954782    
     47500   2.8734763      0.23137002     0              3.0976626      3.827839     
     48000   2.9904424      0.18895541     0              3.1719217      3.3545815    
     48500   2.8778287      0.16077452     0              3.0314087      3.2310502    
     49000   2.9388985      0.25204288     0              3.1835941      3.8255788    
     49500   2.7898331      0.18865145     0              2.97151        3.3805949    
     50000   2.8792977      0.18018777     0              3.0522872      3.2519632    
Loop time of 1.57363 on 64 procs for 50000 steps with 400 atoms

Performance: 27452497.454 tau/day, 31773.724 timesteps/s, 12.709 Matom-step/s
99.5% CPU use with 64 MPI tasks x 1 OpenMP threads

MPI task timing breakdown:
Section |  min time  |  avg time  |  max time  |%varavg| %total
---------------------------------------------------------------
Pair    | 0.0067224  | 0.0073517  | 0.0081107  |   0.4 |  0.47
Neigh   | 0.014704   | 0.015267   | 0.016424   |   0.3 |  0.97
Comm    | 0.66793    | 0.73459    | 0.88087    |   7.1 | 46.68
Output  | 0.0036884  | 0.0038453  | 0.0042346  |   0.2 |  0.24
Modify  | 0.26662    | 0.46953    | 0.60025    |  13.2 | 29.84
Other   |            | 0.343      |            |       | 21.80

Nlocal:           6.25 ave           9 max           4 min
Histogram: 8 0 9 0 21 0 14 0 9 3
Nghost:        12.5625 ave          16 max           8 min
Histogram: 1 1 8 11 0 10 13 8 7 5
Neighs:        5.89062 ave          11 max           1 min
Histogram: 2 5 4 12 9 9 5 2 8 8

Total # of neighbors = 377
Ave neighs/atom = 0.9425
Neighbor list builds = 16971
Dangerous builds = 0
Generated 0 of 0 mixed pair_coeff terms from geometric mixing rule
Setting up Verlet run ...
  Unit style    : lj
  Current step  : 50000
  Time step     : 0.01
Per MPI rank memory allocation (min/avg/max) = 3.068 | 3.068 | 3.068 Mbytes
   Step          Temp          E_pair         E_mol          TotEng         Press     
     50000   2.8792977      0.18018777     0              3.0522872      3.2519632    
     50500   2.8733712      0.23602022     0              3.102208       3.6421313    
     51000   3.2275237      0.23166058     0              3.4511155      3.7620278    
     51500   3.2704249      0.19896857     0              3.4612174      3.6323434    
     52000   3.0920855      0.1631327      0              3.247488       3.1416992    
     52500   3.0000852      0.23555466     0              3.2281397      3.7726391    
     53000   2.9699063      0.22903757     0              3.1915191      3.6346883    
     53500   2.9728885      0.2573511      0              3.2228074      3.9347575    
     54000   2.7942073      0.16222754     0              2.9494493      3.1002684    
     54500   2.8896669      0.12496573     0              3.0074085      2.8742517    
     55000   2.6890153      0.20523465     0              2.8875274      3.3515931    
     55500   2.8167617      0.22600366     0              3.0357234      3.5225267    
     56000   2.804736       0.17307401     0              2.9707982      3.2251289    
     56500   2.861173       0.17173446     0              3.0257546      3.3427872    
     57000   2.7998794      0.2012063      0              2.994086       3.3254179    
     57500   2.9645901      0.28338151     0              3.2405602      4.0279029    
     58000   2.8646192      0.23563049     0              3.0930882      3.7373102    
     58500   2.8598118      0.23298306     0              3.0856454      3.7372234    
     59000   2.8484416      0.17207674     0              3.0133972      3.2549576    
     59500   2.7690815      0.21855637     0              2.9807151      3.3986538    
     60000   2.7942969      0.31176225     0              3.0990734      4.0165201    
     60500   2.7044181      0.11162065     0              2.8092777      2.6540789    
     61000   2.5970452      0.22219744     0              2.81275        3.4872259    
     61500   2.581508       0.22552303     0              2.8005773      3.5748594    
     62000   2.5797044      0.23584783     0              2.809103       3.5160776    
     62500   2.4316838      0.23008676     0              2.6556914      3.4323052    
     63000   2.3886088      0.1520118      0              2.5346491      2.7548552    
     63500   2.3618298      0.1700163      0              2.5259415      2.9398293    
     64000   2.5734269      0.11356765     0              2.680561       2.5050762    
     64500   2.5227095      0.18941638     0              2.7058191      3.0552382    
     65000   2.458251       0.28459526     0              2.7367007      3.6550708    
     65500   2.5831715      0.20001571     0              2.7767293      3.2972166    
     66000   2.6762872      0.14496774     0              2.8145642      3.0166022    
     66500   2.7867932      0.18202502     0              2.9618512      3.2163071    
     67000   2.7297883      0.23277902     0              2.9557429      3.5711387    
     67500   2.5313905      0.20773551     0              2.7327975      3.1574108    
     68000   2.451272       0.14528914     0              2.590433       2.707875     
     68500   2.3869185      0.19330949     0              2.5742606      3.2411074    
     69000   2.3978698      0.19221235     0              2.5840874      3.1032489    
     69500   2.2871984      0.18481935     0              2.4662997      3.0161705    
     70000   2.2216105      0.16820501     0              2.3842615      2.8956115    
     70500   2.0577396      0.17399935     0              2.2265946      2.8183207    
     71000   2.260281       0.18307012     0              2.4377005      2.9678345    
     71500   2.3891517      0.14782867     0              2.5310075      2.7533953    
     72000   2.3312013      0.19711614     0              2.5224895      3.1037097    
     72500   2.430384       0.17074834     0              2.5950564      2.9208772    
     73000   2.4582331      0.21156116     0              2.6636487      3.1334728    
     73500   2.5520427      0.21238178     0              2.7580444      3.4346515    
     74000   2.3265639      0.14549901     0              2.4662465      2.6002144    
     74500   2.2603464      0.16866403     0              2.4233596      2.7823332    
     75000   2.246374       0.11101834     0              2.3517764      2.3914392    
     75500   2.0934788      0.14158764     0              2.2298327      2.6124119    
     76000   2.1291966      0.16088227     0              2.2847559      2.7056773    
     76500   2.1661914      0.18139103     0              2.3421669      2.8527258    
     77000   2.1650069      0.16339874     0              2.3229931      2.8509996    
     77500   2.2344186      0.13547993     0              2.3643125      2.6595817    
     78000   2.3645241      0.12647829     0              2.4850911      2.6900718    
     78500   2.348001       0.15606922     0              2.4982002      2.9263227    
     79000   2.3335479      0.16097193     0              2.488686       2.8716441    
     79500   2.2164868      0.11770679     0              2.3286524      2.4554903    
     80000   2.1718013      0.15541582     0              2.3217876      2.6032115    
     80500   2.078057       0.19739745     0              2.2702593      3.070698     
     81000   2.0338706      0.12342047     0              2.1522064      2.4427138    
     81500   1.9608288      0.09146271     0              2.0473894      2.0524231    
     82000   2.0618589      0.12111149     0              2.1778158      2.2985732    
     82500   2.1778966      0.074443216    0              2.2468951      2.0584667    
     83000   2.0889157      0.13179708     0              2.2154905      2.4348922    
     83500   2.1514123      0.1565068      0              2.3025406      2.7249013    
     84000   2.0723476      0.11442534     0              2.1815921      2.4374301    
     84500   2.0816843      0.12297638     0              2.1994565      2.554865     
     85000   2.0612237      0.11629357     0              2.1723642      2.366451     
     85500   1.8244829      0.11139758     0              1.9313192      2.2925666    
     86000   1.9152672      0.095811226    0              2.0062903      2.0424797    
     86500   1.9113447      0.11288896     0              2.0194553      2.343081     
     87000   1.9635467      0.11258239     0              2.0712202      2.23807      
     87500   1.9356084      0.11301807     0              2.0437875      2.2930932    
     88000   1.9231204      0.20843205     0              2.1267447      3.1261984    
     88500   2.1249295      0.17770917     0              2.2973263      2.8350908    
     89000   1.9866017      0.12781005     0              2.1094452      2.3977091    
     89500   1.9174586      0.089980525    0              2.0026455      2.0465488    
     90000   1.9229716      0.13267552     0              2.0508397      2.5150955    
     90500   1.7109094      0.10729121     0              1.8139233      2.1338067    
     91000   1.6504335      0.13671802     0              1.7830254      2.3136409    
     91500   1.7553238      0.10778243     0              1.858718       2.1014732    
     92000   1.832212       0.10832023     0              1.9359517      2.1554297    
     92500   1.8479019      0.13935787     0              1.98264        2.490723     
     93000   1.7914711      0.10709374     0              1.8940861      2.2013557    
     93500   1.6488322      0.13299786     0              1.777708       2.3389396    
     94000   1.666696       0.10649888     0              1.7690281      2.030189     
     94500   1.6769617      0.098447627    0              1.7712169      1.974481     
     95000   1.6364127      0.094103527    0              1.7264252      1.9539476    
     95500   1.7034898      0.080199051    0              1.7794301      1.8826895    
     96000   1.6251546      0.10383117     0              1.7249229      2.1051425    
     96500   1.639935       0.11743894     0              1.7532741      2.2865855    
     97000   1.6990672      0.094890593    0              1.7897101      2.0449714    
     97500   1.6507876      0.10449387     0              1.7511545      1.8598802    
     98000   1.7336384      0.099380431    0              1.8286847      2.0731975    
     98500   1.6197236      0.09284371     0              1.708518       1.8589402    
     99000   1.5461879      0.11771894     0              1.6600414      2.1783604    
     99500   1.4237582      0.11243219     0              1.5326309      1.9516279    
    100000   1.5197685      0.077712718    0              1.5936818      1.7662445    
    100500   1.4864883      0.074477135    0              1.5572492      1.670391     
    101000   1.3585392      0.061958724    0              1.4171016      1.5939691    
    101500   1.4067916      0.081816589    0              1.4850912      1.6766342    
    102000   1.4440774      0.120276       0              1.5607432      2.0930663    
    102500   1.4870104      0.079322838    0              1.5626157      1.7604683    
    103000   1.5079031      0.07448587     0              1.5786192      1.6363118    
    103500   1.4156638      0.088098351    0              1.500223       1.903988     
    104000   1.4241928      0.06018021     0              1.4808125      1.5579874    
    104500   1.3347103      0.12063297     0              1.4520065      2.2029088    
    105000   1.3345436      0.071186306    0              1.4023936      1.6090655    
    105500   1.3986583      0.076695041    0              1.4718567      1.7220712    
    106000   1.3778423      0.089992195    0              1.4643899      1.7232697    
    106500   1.5171773      0.070703951    0              1.5840883      1.6809019    
    107000   1.4954211      0.059722048    0              1.5514046      1.5641606    
    107500   1.4145711      0.09393526     0              1.5049699      1.823268     
    108000   1.2883131      0.09134197     0              1.3764343      1.7080651    
    108500   1.2758982      0.094101301    0              1.3668098      1.8353815    
    109000   1.3251981      0.036720532    0              1.3586056      1.2275444    
    109500   1.2319626      0.053619919    0              1.2825026      1.3985941    
    110000   1.0738118      0.052393305    0              1.1235205      1.3489619    
    110500   1.1885695      0.055420896    0              1.2410189      1.4179096    
    111000   1.1814113      0.079787142    0              1.2582449      1.6175136    
    111500   1.2028735      0.044799726    0              1.244666       1.329836     
    112000   1.2041744      0.051357972    0              1.2525219      1.3495014    
    112500   1.1868664      0.075871118    0              1.2597703      1.6398369    
    113000   1.2373218      0.062387601    0              1.2966161      1.5591701    
    113500   1.2659498      0.060411666    0              1.3231966      1.486743     
    114000   1.162794       0.080721814    0              1.2406088      1.5909069    
    114500   1.1555287      0.047303507    0              1.1999434      1.2599374    
    115000   1.1013997      0.046659576    0              1.1453057      1.2696398    
    115500   1.0190957      0.05390829     0              1.0704562      1.285654     
    116000   1.0971629      0.040163265    0              1.1345833      1.1775349    
    116500   1.094521       0.029793757    0              1.1215784      1.0493975    
    117000   1.0039147      0.049401687    0              1.0508066      1.2376096    
    117500   1.031732       0.047067712    0              1.0762204      1.2054349    
    118000   0.99218883     0.044597695    0              1.0343061      1.1920666    
    118500   1.025933       0.039043106    0              1.0624113      1.1360614    
    119000   1.0430863      0.052634217    0              1.0931128      1.2783556    
    119500   1.1261494      0.032332447    0              1.1556665      1.1385447    
    120000   1.0176408      0.080414905    0              1.0955116      1.515492     
    120500   0.98527621     0.058848012    0              1.041661       1.3026618    
    121000   0.99412807     0.056376034    0              1.0480188      1.3383741    
    121500   0.99307036     0.043080164    0              1.0336678      1.1640466    
    122000   0.99457024     0.043564602    0              1.0356484      1.1257093    
    122500   0.91744654     0.035085       0              0.95023792     1.0044976    
    123000   0.92205615     0.050305753    0              0.97005676     1.1572427    
    123500   0.90281209     0.058116774    0              0.95867184     1.1478855    
    124000   0.89258279     0.061489653    0              0.95184099     1.2509296    
    124500   0.77887321     0.032189582    0              0.80911561     0.91193258   
    125000   0.77189115     0.041431336    0              0.81139276     1.0659033    
    125500   0.78618361     0.022032334    0              0.80625049     0.78764041   
    126000   0.76193337     0.050250172    0              0.81027871     1.1204432    
    126500   0.76998386     0.019984893    0              0.78804379     0.76936079   
    127000   0.74334595     0.051103038    0              0.79259063     1.0776297    
    127500   0.84535962     0.031242507    0              0.87448872     0.9534463    
    128000   0.79682148     0.042481878    0              0.8373113      1.0448132    
    128500   0.73649789     0.038732305    0              0.77338895     1.0100226    
    129000   0.73647196     0.013570679    0              0.74820146     0.65155915   
    129500   0.68534849     0.026092521    0              0.70972764     0.79145521   
    130000   0.66278523     0.033995687    0              0.69512395     0.87258402   
    130500   0.65191326     0.01701262     0              0.6672961      0.69170626   
    131000   0.65416847     0.039659952    0              0.69219301     0.95143503   
    131500   0.65329469     0.035627045    0              0.6872885      0.93278731   
    132000   0.66310046     0.019593837    0              0.68103655     0.75733236   
    132500   0.66689441     0.025988234    0              0.69121541     0.8204948    
    133000   0.63441367     0.023729909    0              0.65655754     0.74142724   
    133500   0.56414702     0.025109484    0              0.58784614     0.75979177   
    134000   0.53646542     0.027784159    0              0.56290842     0.76593588   
    134500   0.52773791     0.016609256    0              0.54302782     0.61580896   
    135000   0.46580838     0.014950093    0              0.47959395     0.55167587   
    135500   0.51387869     0.022530166    0              0.53512416     0.70991584   
    136000   0.52497118     0.020902682    0              0.54456143     0.62256213   
    136500   0.51118298     0.016253227    0              0.52615825     0.58259196   
    137000   0.49148885     0.020431577    0              0.51069171     0.63909141   
    137500   0.45293139     0.009314234    0              0.4611133      0.46992175   
    138000   0.44573643     0.016078918    0              0.46070101     0.57124055   
    138500   0.41443759     0.013970889    0              0.42737238     0.49179013   
    139000   0.40949185     0.017788493    0              0.42625661     0.57004489   
    139500   0.39947415     0.02606384     0              0.4245393      0.61904719   
    140000   0.41595859     0.012248861    0              0.42716756     0.48152936   
    140500   0.38449524     0.021525221    0              0.40505922     0.56098489   
    141000   0.35913448     0.015774027    0              0.37401067     0.49273406   
    141500   0.33456176     0.014610415    0              0.34833577     0.49844621   
    142000   0.31092477     0.010840915    0              0.32098837     0.40204738   
    142500   0.30815473     0.01214815     0              0.31953249     0.41334927   
    143000   0.32302288     0.0084438313   0              0.33065915     0.3597503    
    143500   0.29990404     0.011724462    0              0.31087874     0.43095277   
    144000   0.27590101     0.013210522    0              0.28842178     0.39955551   
    144500   0.2457077      0.0058664688   0              0.2509599      0.29183746   
    145000   0.24708552     0.0062095266   0              0.25267733     0.27329863   
    145500   0.21655322     0.0075621989   0              0.22357403     0.29176834   
    146000   0.21875632     0.0066259344   0              0.22483537     0.3194003    
    146500   0.21311447     0.0058389624   0              0.21842064     0.26058793   
    147000   0.18918752     0.003166236    0              0.19188079     0.21186411   
    147500   0.17326849     0.0038037423   0              0.17663906     0.23619677   
    148000   0.1590489      0.0018291867   0              0.16048047     0.15986586   
    148500   0.13892337     0.0043970472   0              0.14297311     0.19883391   
    149000   0.13269788     0.0036140265   0              0.13598017     0.19178779   
    149500   0.11807931     0.002168302    0              0.11995241     0.13662105   
    150000   0.098068552    0.0013868113   0              0.099210192    0.097510095  
Loop time of 2.94951 on 64 procs for 100000 steps with 400 atoms

Performance: 29292953.776 tau/day, 33903.882 timesteps/s, 13.562 Matom-step/s
99.5% CPU use with 64 MPI tasks x 1 OpenMP threads

MPI task timing breakdown:
Section |  min time  |  avg time  |  max time  |%varavg| %total
---------------------------------------------------------------
Pair    | 0.012433   | 0.013627   | 0.015031   |   0.5 |  0.46
Neigh   | 0.021274   | 0.022256   | 0.024101   |   0.4 |  0.75
Comm    | 1.1005     | 1.2484     | 1.535      |  10.1 | 42.33
Output  | 0.11415    | 0.11461    | 0.11519    |   0.1 |  3.89
Modify  | 0.49369    | 0.8719     | 1.1038     |  17.6 | 29.56
Other   |            | 0.6787     |            |       | 23.01

Nlocal:           6.25 ave           9 max           3 min
Histogram: 1 5 0 13 0 17 18 0 6 4
Nghost:        12.5938 ave          16 max           9 min
Histogram: 1 1 18 0 14 13 0 8 4 5
Neighs:        6.14062 ave          14 max           1 min
Histogram: 3 8 5 21 11 6 7 0 0 3

Total # of neighbors = 393
Ave neighs/atom = 0.9825
Neighbor list builds = 24768
Dangerous builds = 0
Total wall time: 0:00:04
LAMMPS (15 Sep 2022)
OMP_NUM_THREADS environment is not set. Defaulting to 1 thread. (src/comm.cpp:98)
  using 1 OpenMP thread(s) per MPI task
Lattice spacing in x,y,z = 1.2909944 1.2909944 1.2909944
Created orthogonal box = (0 0 -0.64549722) to (25.819889 25.819889 0.64549722)
  8 by 8 by 1 MPI processor grid
Created 400 atoms
  using lattice units in orthogonal box = (0 0 -0.64549722) to (25.819889 25.819889 0.64549722)
  create_atoms CPU = 0.001 seconds
Generated 0 of 0 mixed pair_coeff terms from geometric mixing rule
Neighbor list info ...
  update: every = 1 steps, delay = 0 steps, check = yes
  max neighbors/atom: 2000, page size: 100000
  master list distance cutoff = 1.3
  ghost atom cutoff = 1.3
  binsize = 0.65, bins = 40 40 2
  1 neighbor lists, perpetual/occasional/extra = 1 0 0
  (1) pair lj/cut, perpetual
      attributes: half, newton on
      pair build: half/bin/atomonly/newton
      stencil: half/bin/2d
      bin: standard
Setting up Verlet run ...
  Unit style    : lj
  Current step  : 0
  Time step     : 0.01
Per MPI rank memory allocation (min/avg/max) = 3.047 | 3.047 | 3.047 Mbytes
   Step          Temp          E_pair         E_mol          TotEng         Press     
         0   3              0              0              2.9925         1.7955       
       500   2.8501098      0.31765986     0              3.1606444      5.2943278    
      1000   2.7843622      0.44190767     0              3.219309       6.2343558    
      1500   2.9486474      0.3031403      0              3.2444161      5.2567585    
      2000   2.9393378      0.36609295     0              3.2980824      5.7812955    
      2500   3.0048418      0.34709445     0              3.3444242      5.8019792    
      3000   2.9718711      0.27950859     0              3.24395        5.1438872    
      3500   3.1782842      0.22084903     0              3.3911875      4.8088842    
      4000   3.3043694      0.35465757     0              3.650766       5.8115603    
      4500   3.1541988      0.36504602     0              3.5113593      6.0112376    
      5000   3.0854411      0.4123081      0              3.4900356      6.2433534    
      5500   3.1464464      0.23828756     0              3.3768678      4.8580276    
      6000   3.2094584      0.25064434     0              3.4520791      5.1125349    
      6500   3.0919369      0.34211573     0              3.4263227      5.7583603    
      7000   3.2711154      0.24496841     0              3.507906       4.99564      
      7500   2.8469524      0.25312257     0              3.0929576      4.7064103    
      8000   2.885292       0.21690665     0              3.0949854      4.590188     
      8500   2.9133378      0.22480505     0              3.1308595      4.7062997    
      9000   2.8822873      0.31611876     0              3.1912004      5.4285089    
      9500   3.0386082      0.22224273     0              3.2532544      4.7395271    
     10000   3.0037057      0.28051992     0              3.2767164      4.9748199    
     10500   2.9715568      0.3302062      0              3.2943341      5.4847984    
     11000   3.0391121      0.35070021     0              3.3822145      5.9360835    
     11500   3.2436749      0.29983886     0              3.5354045      5.5276687    
     12000   3.4173401      0.25744855     0              3.6662453      5.2523985    
     12500   3.023603       0.37931786     0              3.3953618      6.0166902    
     13000   3.1835484      0.37575799     0              3.5513475      6.0431312    
     13500   2.981429       0.35801949     0              3.3319949      5.8130753    
     14000   2.9289815      0.40840712     0              3.3300661      6.0644752    
     14500   2.8728167      0.25297194     0              3.1186066      4.7531501    
     15000   2.9037903      0.33552914     0              3.23206        5.668534     
     15500   2.9128284      0.24120624     0              3.1467525      4.692918     
     16000   2.753429       0.28176382     0              3.0283092      4.9515988    
     16500   2.9604352      0.2274611      0              3.1804953      4.8025325    
     17000   2.9711071      0.37215815     0              3.3358375      5.8617216    
     17500   3.1084461      0.34955967     0              3.4502346      5.7639953    
     18000   3.2155638      0.30046919     0              3.507994       5.541573     
     18500   2.927711       0.30130107     0              3.2216928      5.4433817    
     19000   2.8425772      0.29367705     0              3.1291478      5.0467021    
     19500   2.8953914      0.26339691     0              3.1515498      4.9199288    
     20000   2.9425132      0.26157309     0              3.19673        4.9182345    
     20500   3.175436       0.23634884     0              3.4038463      4.6950894    
     21000   3.0625711      0.38276491     0              3.4376795      6.126108     
     21500   3.0663754      0.33924479     0              3.3979543      5.5524769    
     22000   3.0415667      0.36038496     0              3.3943478      5.8540754    
     22500   3.1676049      0.29186111     0              3.451547       5.3473689    
     23000   2.8956622      0.23963815     0              3.1280612      4.7327199    
     23500   2.8552814      0.28688456     0              3.1350277      5.1966034    
     24000   2.8838347      0.24791095     0              3.1245361      4.7167617    
     24500   3.0266353      0.19431499     0              3.2133837      4.5055804    
     25000   2.8746186      0.24493113     0              3.1123632      4.8859125    
     25500   2.8110957      0.28879038     0              3.0928584      4.8227789    
     26000   2.8886379      0.18128794     0              3.0627042      4.211568     
     26500   2.914075       0.31082207     0              3.2176119      5.4968186    
     27000   2.7181423      0.30325645     0              3.0146034      5.2578897    
     27500   2.8907182      0.40513984     0              3.2886313      6.2430737    
     28000   2.9641267      0.38595401     0              3.3426704      6.0517679    
     28500   3.0438886      0.28336551     0              3.3196444      5.3496063    
     29000   3.2293299      0.33861485     0              3.5598714      5.9312472    
     29500   3.4660719      0.23736144     0              3.6947682      5.0114924    
     30000   3.0786486      0.36168472     0              3.4326367      6.0725966    
     30500   2.9399848      0.38793856     0              3.3205734      5.946592     
     31000   2.9469066      0.30316351     0              3.2427029      5.156961     
     31500   2.968395       0.35405018     0              3.3150242      5.7069333    
     32000   3.1597413      0.34076742     0              3.4926093      5.5695563    
     32500   3.0422461      0.32743363     0              3.3620741      5.5552992    
     33000   3.2060668      0.29785939     0              3.495911       5.5453227    
     33500   2.9237141      0.3592256      0              3.2756304      5.6694332    
     34000   2.9315926      0.26253993     0              3.1868036      4.9600326    
     34500   3.0606383      0.28369291     0              3.3366796      5.3047422    
     35000   3.0908885      0.44401455     0              3.5271759      6.7679248    
     35500   3.3666186      0.32123874     0              3.6794408      5.729779     
     36000   3.1801418      0.40096013     0              3.5731516      6.0936331    
     36500   3.1143151      0.36061247     0              3.4671418      5.9099745    
     37000   3.1068152      0.26795777     0              3.3670059      4.8940564    
     37500   2.9981719      0.43644384     0              3.4271203      6.6105766    
     38000   3.2145463      0.29476755     0              3.5012775      5.5838505    
     38500   3.192474       0.27823356     0              3.4627264      5.2515654    
     39000   3.3355803      0.17953357     0              3.5067749      4.4738277    
     39500   3.0743196      0.33038634     0              3.3970201      5.5129548    
     40000   2.9433533      0.35455854     0              3.2905535      5.8041771    
     40500   2.9719201      0.34893017     0              3.3134205      5.6708816    
     41000   2.949846       0.32113497     0              3.2636064      5.2956627    
     41500   2.9905625      0.26354719     0              3.2466333      4.8232528    
     42000   3.0958282      0.30567004     0              3.3937587      5.3710307    
     42500   2.6778577      0.32058663     0              2.9917497      5.3017869    
     43000   2.8907459      0.22898172     0              3.1125007      4.7702606    
     43500   2.9177034      0.34920273     0              3.2596118      5.7579305    
     44000   3.0661966      0.29507701     0              3.3536081      5.3413284    
     44500   2.9367001      0.36338231     0              3.2927407      5.7024045    
     45000   3.0705948      0.31504787     0              3.3779662      5.3427239    
     45500   3.1496985      0.24635838     0              3.3881827      4.7776904    
     46000   3.0324022      0.358748       0              3.3835692      5.5429363    
     46500   3.1618984      0.31471799     0              3.4687116      5.6889194    
     47000   3.0406101      0.45901105     0              3.4920196      6.6833522    
     47500   3.3439864      0.29019015     0              3.6258166      5.3159646    
     48000   2.7997955      0.2833085      0              3.0761045      4.9248116    
     48500   2.8228222      0.29908531     0              3.1148504      5.2292874    
     49000   2.8066483      0.34467984     0              3.1443115      5.4014634    
     49500   2.8730567      0.33797977     0              3.2038539      5.5049337    
     50000   2.9237288      0.23166912     0              3.1480886      4.8491166    
Loop time of 1.57582 on 64 procs for 50000 steps with 400 atoms

Performance: 27414260.215 tau/day, 31729.468 timesteps/s, 12.692 Matom-step/s
99.5% CPU use with 64 MPI tasks x 1 OpenMP threads

MPI task timing breakdown:
Section |  min time  |  avg time  |  max time  |%varavg| %total
---------------------------------------------------------------
Pair    | 0.0076532  | 0.0083483  | 0.0091118  |   0.4 |  0.53
Neigh   | 0.015847   | 0.016331   | 0.017799   |   0.3 |  1.04
Comm    | 0.66767    | 0.74423    | 0.87499    |   6.7 | 47.23
Output  | 0.003757   | 0.0038961  | 0.005181   |   0.3 |  0.25
Modify  | 0.26567    | 0.46216    | 0.58429    |  13.0 | 29.33
Other   |            | 0.3408     |            |       | 21.63

Nlocal:           6.25 ave           9 max           3 min
Histogram: 1 2 0 12 0 24 17 0 6 2
Nghost:         13.875 ave          18 max           9 min
Histogram: 1 0 4 8 12 19 7 10 2 1
Neighs:        7.59375 ave          14 max           1 min
Histogram: 1 1 2 20 10 8 15 1 1 5

Total # of neighbors = 486
Ave neighs/atom = 1.215
Neighbor list builds = 16927
Dangerous builds = 0
Generated 0 of 0 mixed pair_coeff terms from geometric mixing rule
Setting up Verlet run ...
  Unit style    : lj
  Current step  : 50000
  Time step     : 0.01
Per MPI rank memory allocation (min/avg/max) = 3.068 | 3.068 | 3.068 Mbytes
   Step          Temp          E_pair         E_mol          TotEng         Press     
     50000   2.9237288      0.23166912     0              3.1480886      4.8491166    
     50500   2.9348952      0.3103731      0              3.2379311      5.3168995    
     51000   2.9195411      0.31455895     0              3.2268012      5.5098126    
     51500   2.8375077      0.20277931     0              3.0331932      4.1222199    
     52000   2.9760725      0.2356997      0              3.204332       4.7764182    
     52500   3.0560633      0.27549008     0              3.3239132      5.0992472    
     53000   3.066262       0.2703717      0              3.328968       5.124375     
     53500   2.9892305      0.28803504     0              3.2697925      5.2760157    
     54000   2.8234431      0.35210044     0              3.1684849      5.7036177    
     54500   2.7373387      0.24929692     0              2.9797923      4.5289891    
     55000   2.5908911      0.32137356     0              2.9057874      5.0474114    
     55500   2.7326385      0.23842809     0              2.964235       4.6533087    
     56000   2.7826673      0.2743166      0              3.0500273      4.9430723    
     56500   2.6320566      0.28354009     0              2.9090165      4.7813766    
     57000   2.7441256      0.31634045     0              3.0536058      5.2520676    
     57500   2.7410794      0.37644813     0              3.1106748      5.9446171    
     58000   2.9432757      0.30245391     0              3.2383714      5.1526195    
     58500   2.8706338      0.30782682     0              3.1712841      5.2674403    
     59000   2.907179       0.27491529     0              3.1748263      4.9770986    
     59500   2.7998467      0.28831425     0              3.0811613      4.9945966    
     60000   2.9521466      0.30907026     0              3.2538365      5.1263043    
     60500   3.006208       0.28980947     0              3.288502       5.0101635    
     61000   2.6907901      0.2571108      0              2.9411739      4.7270526    
     61500   2.5942122      0.3023702      0              2.8900969      5.0592293    
     62000   2.7134575      0.21554457     0              2.9222184      4.2605713    
     62500   2.5660375      0.29005478     0              2.8496772      5.0066061    
     63000   2.4809067      0.30129574     0              2.7760002      4.8199704    
     63500   2.3521189      0.24457691     0              2.5908155      4.3793892    
     64000   2.4836367      0.16794811     0              2.6453757      3.8958182    
     64500   2.5166238      0.29814719     0              2.8084795      4.9439161    
     65000   2.7418523      0.18567691     0              2.9206746      4.1620474    
     65500   2.7562434      0.18919213     0              2.9385449      4.3592246    
     66000   2.3788008      0.29997003     0              2.6728238      4.9341976    
     66500   2.2325092      0.26946806     0              2.496396       4.463307     
     67000   2.4529455      0.20190738     0              2.6487205      3.9483399    
     67500   2.4014823      0.27943167     0              2.6749103      4.7519644    
     68000   2.4653932      0.24104376     0              2.7002735      4.4869995    
     68500   2.4140449      0.21442833     0              2.6224381      4.287774     
     69000   2.6724418      0.25633203     0              2.9220927      4.7387786    
     69500   2.5868891      0.28191562     0              2.8623375      4.8410297    
     70000   2.620592       0.20644279     0              2.8204833      4.35722      
     70500   2.4906102      0.20284019     0              2.6872238      4.1893057    
     71000   2.3020961      0.25725601     0              2.5535968      4.6054403    
     71500   2.3902359      0.20628562     0              2.5905459      4.048532     
     72000   2.3020757      0.26446754     0              2.560788       4.3709658    
     72500   2.2322148      0.1726316      0              2.3992658      3.6786904    
     73000   2.3277299      0.19721249     0              2.5191231      3.9795538    
     73500   2.2944297      0.22910284     0              2.5177965      4.1123644    
     74000   2.2721812      0.24354581     0              2.5100466      4.4159928    
     74500   2.3039961      0.1946354      0              2.4928715      3.8468775    
     75000   2.356448       0.32046106     0              2.6710179      5.3285337    
     75500   2.3901877      0.30878961     0              2.6930018      5.0095916    
     76000   2.244414       0.37723701     0              2.6160399      5.4481242    
     76500   2.2870673      0.21089407     0              2.4922437      4.1471771    
     77000   2.2344879      0.26376001     0              2.4926617      4.3557924    
     77500   2.3069114      0.17824022     0              2.4793843      3.7277304    
     78000   2.103831       0.1790111      0              2.2775825      3.4403282    
     78500   2.1361288      0.18409113     0              2.3148796      3.9125346    
     79000   2.0283286      0.22569114     0              2.248949       3.9426022    
     79500   2.1097704      0.285385       0              2.389881       4.5641359    
     80000   2.3447129      0.25112902     0              2.5899801      4.7056448    
     80500   2.344581       0.22454136     0              2.5632609      4.3404226    
     81000   2.1348082      0.22927004     0              2.3587412      4.0237418    
     81500   2.1217633      0.17107464     0              2.2875336      3.7743941    
     82000   1.9539826      0.2525449      0              2.2016425      4.3326334    
     82500   2.0176167      0.18780721     0              2.2003799      3.7473986    
     83000   1.9260959      0.16441228     0              2.085693       3.4467815    
     83500   1.8111015      0.19896612     0              2.0055399      3.6032653    
     84000   1.9446522      0.18103478     0              2.1208254      3.6282963    
     84500   1.9925496      0.18775835     0              2.1753266      3.7357414    
     85000   2.0302558      0.20563484     0              2.230815       4.0465997    
     85500   2.0526619      0.12333398     0              2.1708642      2.9590064    
     86000   1.9966214      0.21055248     0              2.2021823      3.972871     
     86500   1.9552225      0.15372444     0              2.1040589      3.277338     
     87000   1.7766008      0.21256399     0              1.9847233      3.7333832    
     87500   1.6368372      0.19478717     0              1.8275323      3.5358417    
     88000   1.8580502      0.14617967     0              1.9995847      3.2515684    
     88500   1.8826756      0.11666578     0              1.9946347      2.8851331    
     89000   1.7226316      0.19773938     0              1.9160644      3.6885194    
     89500   1.9177962      0.15509317     0              2.0680949      3.5063591    
     90000   1.8630043      0.14737848     0              2.0057253      3.0970459    
     90500   1.8456706      0.19748237     0              2.0385388      3.8496492    
     91000   1.8239945      0.18827358     0              2.0077081      3.5617196    
     91500   1.8622823      0.14492157     0              2.0025482      3.100061     
     92000   1.8640989      0.1921571      0              2.0515957      3.5275875    
     92500   1.7371892      0.21891685     0              1.9517631      3.9741308    
     93000   1.8258569      0.16587206     0              1.9871643      3.3544791    
     93500   1.802259       0.18764291     0              1.9853963      3.6424085    
     94000   1.7843718      0.14645151     0              1.9263624      3.1565944    
     94500   1.6732392      0.12895049     0              1.7980066      2.8655258    
     95000   1.517938       0.1478753      0              1.6620185      3.1205661    
     95500   1.6527055      0.12211335     0              1.7706871      2.8234028    
     96000   1.6038894      0.13595939     0              1.7358391      2.9152784    
     96500   1.4919833      0.1637224      0              1.6519758      3.2624046    
     97000   1.5368734      0.16980657     0              1.7028378      3.210322     
     97500   1.6326766      0.11511489     0              1.7437098      2.7759541    
     98000   1.601011       0.14324597     0              1.7402545      2.9946975    
     98500   1.6225197      0.12770059     0              1.746164       2.9578466    
     99000   1.6691392      0.1673326      0              1.8322989      3.2114649    
     99500   1.5764213      0.1832296      0              1.7557099      3.2924689    
    100000   1.5664979      0.13427871     0              1.6968604      2.9204484    
    100500   1.4765236      0.16621646     0              1.6390487      3.137702     
    101000   1.3795397      0.15455025     0              1.5306411      2.9534907    
    101500   1.458941       0.15870409     0              1.6139978      3.0077004    
    102000   1.4120895      0.16190387     0              1.5704632      3.0733564    
    102500   1.456852       0.11095013     0              1.56416        2.4701285    
    103000   1.3386281      0.11421807     0              1.4494996      2.4182947    
    103500   1.4863665      0.090920691    0              1.5735713      2.4261693    
    104000   1.4297665      0.15656013     0              1.5827522      2.9644359    
    104500   1.4650559      0.10296153     0              1.5643548      2.4294246    
    105000   1.4655409      0.12623596     0              1.588113       2.7719467    
    105500   1.504552       0.085592656    0              1.5863833      2.4673481    
    106000   1.4006923      0.086862762    0              1.4840534      2.14095      
    106500   1.2793244      0.10384812     0              1.3799742      2.4041972    
    107000   1.2667237      0.13320407     0              1.396761       2.704594     
    107500   1.2847552      0.12021994     0              1.4017633      2.6046897    
    108000   1.3113294      0.10452855     0              1.4125797      2.4260536    
    108500   1.3145169      0.10434734     0              1.4155779      2.4461191    
    109000   1.3199422      0.081266713    0              1.3979091      2.1382802    
    109500   1.3532846      0.072976275    0              1.4228777      2.0467554    
    110000   1.3823177      0.11718734     0              1.4960492      2.5692046    
    110500   1.3914776      0.10001429     0              1.4880132      2.4502652    
    111000   1.2516905      0.089426374    0              1.3379876      2.2641325    
    111500   1.1382291      0.11124893     0              1.2466324      2.4180589    
    112000   1.1604308      0.071099845    0              1.2286296      1.875269     
    112500   1.1729747      0.099293803    0              1.269336       2.2255053    
    113000   1.1393825      0.1008977      0              1.2374317      2.3134327    
    113500   1.1942573      0.075217214    0              1.2664889      1.9893133    
    114000   1.1635282      0.097745086    0              1.2583644      2.2730818    
    114500   1.1681476      0.096327661    0              1.2615549      2.3368558    
    115000   1.2047515      0.07632273     0              1.2780623      1.9539294    
    115500   1.1391768      0.076570133    0              1.212899       2.0325845    
    116000   0.99614216     0.097461325    0              1.0911131      2.0526438    
    116500   1.0484435      0.089220511    0              1.1350429      2.0831426    
    117000   0.99826702     0.088053575    0              1.0838249      1.9600817    
    117500   0.94152553     0.058362159    0              0.99753387     1.6489115    
    118000   0.97845432     0.070996599    0              1.0470048      1.8915621    
    118500   0.99447785     0.057644742    0              1.0496364      1.7315681    
    119000   0.97234488     0.08098978     0              1.0509038      1.8946321    
    119500   0.92998046     0.072466523    0              1.000122       1.8714505    
    120000   0.87226919     0.076575224    0              0.94666374     1.9488238    
    120500   0.88860597     0.069381288    0              0.95576575     1.6746907    
    121000   0.97251031     0.069436738    0              1.0395158      1.8189722    
    121500   0.96188538     0.068777634    0              1.0282583      1.7110527    
    122000   0.92404367     0.070641045    0              0.99237461     1.7754189    
    122500   0.95564367     0.04043549     0              0.99369005     1.4805593    
    123000   0.95069138     0.089565448    0              1.0378801      2.0558934    
    123500   0.90755359     0.048122284    0              0.95340699     1.4642185    
    124000   0.86408787     0.07144971     0              0.93337736     1.7256254    
    124500   0.7830473      0.067162596    0              0.84825228     1.6509667    
    125000   0.79295234     0.063596246    0              0.85456621     1.7130099    
    125500   0.78625863     0.043883999    0              0.82817698     1.3414033    
    126000   0.80544601     0.037577737    0              0.84101013     1.3344921    
    126500   0.82523581     0.061715579    0              0.8848883      1.6220526    
    127000   0.81950094     0.091353742    0              0.90880593     1.9236076    
    127500   0.8049364      0.049735612    0              0.85265967     1.4259415    
    128000   0.73162984     0.073354669    0              0.80315543     1.814403     
    128500   0.74688951     0.072983548    0              0.81800583     1.7290865    
    129000   0.81463534     0.083630141    0              0.8962289      1.8474947    
    129500   0.74076753     0.051214193    0              0.79012981     1.4184686    
    130000   0.68668497     0.055430861    0              0.74039912     1.5578172    
    130500   0.66786234     0.054217806    0              0.72041049     1.3917459    
    131000   0.6398766      0.055287564    0              0.69356447     1.4523779    
    131500   0.59667741     0.042027176    0              0.6372129      1.1908584    
    132000   0.62114322     0.03565452     0              0.65524488     1.1169559    
    132500   0.57311003     0.03796008     0              0.60963733     1.1521038    
    133000   0.58077479     0.048404856    0              0.62772771     1.2890567    
    133500   0.60237461     0.045056847    0              0.64592552     1.2786893    
    134000   0.60470845     0.038780295    0              0.64197698     1.1653133    
    134500   0.57142248     0.039065801    0              0.60905972     1.1709148    
    135000   0.57438019     0.025257956    0              0.59820219     0.95468998   
    135500   0.56291436     0.044436033    0              0.6059431      1.185496     
    136000   0.505669       0.025347987    0              0.52975282     0.91243822   
    136500   0.47752831     0.027347653    0              0.50368215     0.9315399    
    137000   0.46503275     0.032956858    0              0.49682702     1.0139648    
    137500   0.40846522     0.027195283    0              0.43463934     0.86114858   
    138000   0.43019396     0.027689989    0              0.45680847     0.88188414   
    138500   0.42267876     0.029167929    0              0.45078999     0.93719262   
    139000   0.41756065     0.030085529    0              0.44660228     0.95656353   
    139500   0.42845731     0.019645651    0              0.44703182     0.76550939   
    140000   0.42244618     0.02311221     0              0.44450227     0.84767939   
    140500   0.37442612     0.019177754    0              0.39266781     0.70477438   
    141000   0.35881828     0.023772791    0              0.38169402     0.78868125   
    141500   0.35265956     0.013168355    0              0.36494627     0.54362026   
    142000   0.32138719     0.023047854    0              0.34363157     0.74806279   
    142500   0.28972969     0.019005301    0              0.30801066     0.60700602   
    143000   0.30400853     0.011278659    0              0.31452717     0.54035389   
    143500   0.27784147     0.012897423    0              0.29004429     0.55990153   
    144000   0.26880714     0.013665373    0              0.2818005      0.53444489   
    144500   0.26481348     0.017326974    0              0.28147842     0.63225534   
    145000   0.24271804     0.01031415     0              0.25242539     0.46331128   
    145500   0.21471133     0.014566026    0              0.22874058     0.52333987   
    146000   0.19954609     0.008819661    0              0.20786688     0.39321259   
    146500   0.18335619     0.0042569349   0              0.18715474     0.29608973   
    147000   0.18177287     0.0088353727   0              0.19015381     0.35870948   
    147500   0.17238825     0.0041418542   0              0.17609913     0.30319047   
    148000   0.16020555     0.010252877    0              0.17005791     0.43976444   
    148500   0.15418359     0.0018531536   0              0.15565128     0.18872654   
    149000   0.12118573     0.0032963465   0              0.12417911     0.21490737   
    149500   0.11411269     0.0025799602   0              0.11640737     0.19961313   
    150000   0.098840194    0.0040677737   0              0.10266087     0.21826156   
Loop time of 2.94384 on 64 procs for 100000 steps with 400 atoms

Performance: 29349459.534 tau/day, 33969.282 timesteps/s, 13.588 Matom-step/s
99.5% CPU use with 64 MPI tasks x 1 OpenMP threads

MPI task timing breakdown:
Section |  min time  |  avg time  |  max time  |%varavg| %total
---------------------------------------------------------------
Pair    | 0.014186   | 0.015404   | 0.016957   |   0.5 |  0.52
Neigh   | 0.022997   | 0.023711   | 0.025916   |   0.4 |  0.81
Comm    | 1.1149     | 1.2703     | 1.5572     |  10.4 | 43.15
Output  | 0.077455   | 0.077889   | 0.078431   |   0.1 |  2.65
Modify  | 0.49503    | 0.8786     | 1.1172     |  18.5 | 29.85
Other   |            | 0.6779     |            |       | 23.03

Nlocal:           6.25 ave           9 max           3 min
Histogram: 1 2 0 14 0 23 12 0 11 1
Nghost:        14.4219 ave          18 max          11 min
Histogram: 1 8 10 0 13 16 0 10 4 2
Neighs:              8 ave          16 max           1 min
Histogram: 2 2 9 6 21 6 8 6 3 1

Total # of neighbors = 512
Ave neighs/atom = 1.28
Neighbor list builds = 24588
Dangerous builds = 0
Total wall time: 0:00:04
LAMMPS (15 Sep 2022)
OMP_NUM_THREADS environment is not set. Defaulting to 1 thread. (src/comm.cpp:98)
  using 1 OpenMP thread(s) per MPI task
Lattice spacing in x,y,z = 1.1952286 1.1952286 1.1952286
Created orthogonal box = (0 0 -0.5976143) to (23.904572 23.904572 0.5976143)
  8 by 8 by 1 MPI processor grid
Created 400 atoms
  using lattice units in orthogonal box = (0 0 -0.5976143) to (23.904572 23.904572 0.5976143)
  create_atoms CPU = 0.001 seconds
Generated 0 of 0 mixed pair_coeff terms from geometric mixing rule
Neighbor list info ...
  update: every = 1 steps, delay = 0 steps, check = yes
  max neighbors/atom: 2000, page size: 100000
  master list distance cutoff = 1.3
  ghost atom cutoff = 1.3
  binsize = 0.65, bins = 37 37 2
  1 neighbor lists, perpetual/occasional/extra = 1 0 0
  (1) pair lj/cut, perpetual
      attributes: half, newton on
      pair build: half/bin/atomonly/newton
      stencil: half/bin/2d
      bin: standard
Setting up Verlet run ...
  Unit style    : lj
  Current step  : 0
  Time step     : 0.01
Per MPI rank memory allocation (min/avg/max) = 3.047 | 3.047 | 3.047 Mbytes
   Step          Temp          E_pair         E_mol          TotEng         Press     
         0   3              0              0              2.9925         2.09475      
       500   2.8932637      0.42897083     0              3.3150014      7.7279207    
      1000   2.9446315      0.38292538     0              3.3201953      7.3883351    
      1500   2.9687901      0.47660767     0              3.4379758      8.1884128    
      2000   2.9456793      0.4639233      0              3.4022384      8.1960453    
      2500   2.9669038      0.44633332     0              3.4058198      7.8361253    
      3000   2.8221618      0.47764311     0              3.2927495      7.933584     
      3500   3.0881859      0.31130486     0              3.3917703      6.8098101    
      4000   2.9930413      0.30891598     0              3.2944746      6.8502295    
      4500   2.7804255      0.41666156     0              3.190136       7.8933436    
      5000   2.9050531      0.46588894     0              3.3636794      8.1318998    
      5500   3.1476377      0.42788181     0              3.5676504      8.2142394    
      6000   3.1215942      0.483753       0              3.5975432      8.941053     
      6500   3.1040119      0.51489316     0              3.611145       8.6503139    
      7000   2.9645553      0.49026858     0              3.4474125      8.2208219    
      7500   2.9983965      0.42464641     0              3.415547       7.9046446    
      8000   3.0618851      0.35281397     0              3.4070444      7.1592217    
      8500   2.8274068      0.56223564     0              3.3825739      9.0744584    
      9000   2.9557592      0.39267846     0              3.3410482      7.4700876    
      9500   2.9240224      0.46899216     0              3.3857045      8.499764     
     10000   2.9584239      0.41189804     0              3.3629259      7.6773701    
     10500   3.0962451      0.38107291     0              3.4695774      7.4359849    
     11000   2.8344727      0.44570229     0              3.2730888      7.9855905    
     11500   2.9337552      0.38862356     0              3.3150444      7.3873211    
     12000   3.0104865      0.38311814     0              3.3860784      7.496838     
     12500   2.9977154      0.35265241     0              3.3428735      7.1407836    
     13000   2.8123687      0.38554057     0              3.1908783      7.5001571    
     13500   2.919424       0.38577347     0              3.2978989      7.2279061    
     14000   2.8296163      0.48300324     0              3.3055455      8.2448192    
     14500   2.9297703      0.45340515     0              3.3758511      7.9510296    
     15000   2.9016156      0.44267481     0              3.3370363      7.8648204    
     15500   2.8988824      0.51134693     0              3.4029821      8.6540811    
     16000   3.2176559      0.42280976     0              3.6324215      7.7331801    
     16500   3.1642328      0.48278155     0              3.6391037      8.4541243    
     17000   3.212638       0.45259476     0              3.6572011      8.176907     
     17500   3.0603972      0.47682035     0              3.5295666      8.6658262    
     18000   3.147251       0.48463683     0              3.6240197      8.5361382    
     18500   3.3785367      0.60505425     0              3.9751446      10.058785    
     19000   3.223249       0.42289292     0              3.6380838      7.8485482    
     19500   3.1459918      0.44856706     0              3.5866939      8.385979     
     20000   3.0855201      0.44086009     0              3.5186664      8.2230515    
     20500   3.1744945      0.4668515      0              3.6334097      8.408172     
     21000   3.4157119      0.47810305     0              3.8852757      8.575677     
     21500   3.2172566      0.47710309     0              3.6863166      8.4994298    
     22000   3.1375257      0.44848728     0              3.5781691      8.1373551    
     22500   3.0169228      0.49356896     0              3.5029495      8.7707022    
     23000   3.0669554      0.53340903     0              3.5926971      9.0281686    
     23500   3.0813893      0.5923384      0              3.6660242      9.1148667    
     24000   3.2115105      0.42954241     0              3.6330241      8.0978085    
     24500   2.7685781      0.47399874     0              3.2356554      8.4824241    
     25000   2.9955814      0.36869179     0              3.3567842      7.3707493    
     25500   2.8474627      0.45169569     0              3.2920397      8.0493922    
     26000   2.9607746      0.47192813     0              3.4253008      8.3083489    
     26500   2.8830449      0.3763367      0              3.252174       7.4301568    
     27000   2.718921       0.40855074     0              3.1206745      7.3345958    
     27500   2.7792114      0.38784634     0              3.1601097      7.3839202    
     28000   3.0028172      0.37755938     0              3.3728695      7.1525758    
     28500   2.8906578      0.43612707     0              3.3195582      7.9037728    
     29000   2.8871824      0.33484357     0              3.214808       7.0035354    
     29500   2.8867332      0.35630146     0              3.2358178      6.9931483    
     30000   2.808009       0.54792823     0              3.3489172      8.8774983    
     30500   2.9586803      0.36567553     0              3.3169592      7.2185019    
     31000   2.9857311      0.40565413     0              3.3839209      7.645489     
     31500   2.7766317      0.43997245     0              3.2096626      7.7868941    
     32000   2.9197805      0.40400416     0              3.3164852      7.5154657    
     32500   3.0079771      0.46628307     0              3.4667402      8.1312599    
     33000   3.0400679      0.50774594     0              3.5402136      8.781792     
     33500   3.0756265      0.44169085     0              3.5096282      7.8682235    
     34000   3.1435755      0.47307817     0              3.6087947      8.4850402    
     34500   3.2972956      0.54456669     0              3.8336191      9.4472305    
     35000   3.250806       0.61457092     0              3.8572499      9.5116854    
     35500   3.0796294      0.50024753     0              3.5721779      8.5864804    
     36000   3.0198097      0.42543536     0              3.4376955      7.8915122    
     36500   2.907241       0.43544423     0              3.3354172      8.1133708    
     37000   2.982273       0.38917229     0              3.3639896      7.4347869    
     37500   2.9174962      0.43832021     0              3.3485227      8.08252      
     38000   2.6976066      0.4911294      0              3.181992       7.9085443    
     38500   2.9666133      0.36872878     0              3.3279255      7.5232313    
     39000   2.9039416      0.46273647     0              3.3594182      8.3295197    
     39500   3.039598       0.36552408     0              3.3975231      7.5050594    
     40000   2.9609243      0.51355699     0              3.467079       8.9362851    
     40500   3.1669956      0.42289502     0              3.5819731      7.946372     
     41000   3.1373305      0.55684272     0              3.6863299      9.3072359    
     41500   2.9868836      0.46478342     0              3.4441998      8.4592733    
     42000   2.8672245      0.41587813     0              3.2759346      7.612502     
     42500   2.984767       0.35565253     0              3.3329576      7.0135916    
     43000   2.955703       0.36833561     0              3.3166493      7.2651073    
     43500   2.861148       0.50904561     0              3.3630407      8.7544333    
     44000   2.7342291      0.45248833     0              3.1798818      7.9788267    
     44500   2.9202509      0.4767736      0              3.3897238      8.5262524    
     45000   2.9809733      0.39777546     0              3.3712963      7.3612729    
     45500   3.0971544      0.3717871      0              3.4611986      7.4073755    
     46000   3.0964425      0.49733846     0              3.5860398      8.4000984    
     46500   3.4018289      0.45879971     0              3.852124       8.4395613    
     47000   3.0972699      0.46865904     0              3.5581858      8.4851354    
     47500   3.1346497      0.48942664     0              3.6162397      8.5629868    
     48000   3.1496525      0.41588358     0              3.557662       7.8649022    
     48500   3.005725       0.51284269     0              3.5110534      8.7487213    
     49000   3.0276427      0.5039416      0              3.5240152      8.4352226    
     49500   2.8326099      0.47271264     0              3.298241       8.3785102    
     50000   2.8995311      0.47280443     0              3.3650867      8.4124327    
Loop time of 1.60656 on 64 procs for 50000 steps with 400 atoms

Performance: 26889825.560 tau/day, 31122.483 timesteps/s, 12.449 Matom-step/s
99.4% CPU use with 64 MPI tasks x 1 OpenMP threads

MPI task timing breakdown:
Section |  min time  |  avg time  |  max time  |%varavg| %total
---------------------------------------------------------------
Pair    | 0.0086838  | 0.0095252  | 0.010402   |   0.4 |  0.59
Neigh   | 0.016799   | 0.01727    | 0.018466   |   0.3 |  1.07
Comm    | 0.6743     | 0.75501    | 0.90777    |   7.3 | 47.00
Output  | 0.0037294  | 0.0039153  | 0.0057646  |   0.4 |  0.24
Modify  | 0.25029    | 0.47701    | 0.60875    |  13.9 | 29.69
Other   |            | 0.3438     |            |       | 21.40

Nlocal:           6.25 ave           8 max           4 min
Histogram: 4 0 14 0 0 18 0 18 0 10
Nghost:        15.6094 ave          19 max          10 min
Histogram: 1 1 1 12 6 7 11 10 10 5
Neighs:        9.95312 ave          20 max           3 min
Histogram: 2 9 14 5 10 16 2 4 1 1

Total # of neighbors = 637
Ave neighs/atom = 1.5925
Neighbor list builds = 16929
Dangerous builds = 0
Generated 0 of 0 mixed pair_coeff terms from geometric mixing rule
Setting up Verlet run ...
  Unit style    : lj
  Current step  : 50000
  Time step     : 0.01
Per MPI rank memory allocation (min/avg/max) = 3.068 | 3.068 | 3.068 Mbytes
   Step          Temp          E_pair         E_mol          TotEng         Press     
     50000   2.8995311      0.47280443     0              3.3650867      8.4124327    
     50500   2.8557902      0.44447064     0              3.2931214      8.091214     
     51000   2.8466871      0.51216426     0              3.3517346      8.4164049    
     51500   3.2415005      0.56219465     0              3.7955914      9.4591995    
     52000   3.015958       0.51331852     0              3.5217366      8.9865624    
     52500   3.0052732      0.47319565     0              3.4709556      8.1121516    
     53000   3.0125239      0.36847929     0              3.3734719      7.3912762    
     53500   2.9811243      0.36584677     0              3.3395183      7.2081319    
     54000   3.0747601      0.40070305     0              3.4677762      7.4730741    
     54500   2.8980433      0.38021617     0              3.2710143      7.2553569    
     55000   3.0288631      0.36153569     0              3.3828266      7.2655609    
     55500   2.955668       0.39104667     0              3.3393255      7.3337654    
     56000   2.850609       0.36487251     0              3.208355       6.9669296    
     56500   2.6934012      0.36727507     0              3.0539428      7.082733     
     57000   2.7072353      0.40866624     0              3.1091334      7.695682     
     57500   2.7889168      0.38596452     0              3.167909       7.1270015    
     58000   2.6234819      0.43499144     0              3.0519146      7.2779388    
     58500   2.7337317      0.38757507     0              3.1144724      7.1147711    
     59000   2.6712961      0.41808821     0              3.0827061      7.7172975    
     59500   2.6443842      0.32587849     0              2.9636517      6.785995     
     60000   2.3611253      0.37254105     0              2.7277635      6.8618883    
     60500   2.5308845      0.45889434     0              2.9834516      8.1575812    
     61000   2.4765924      0.42024085     0              2.8906417      7.435974     
     61500   2.5141309      0.34483562     0              2.8526812      6.8739564    
     62000   2.5242824      0.38099632     0              2.898968       7.1253817    
     62500   2.639075       0.36375714     0              2.9962345      6.8351741    
     63000   2.488861       0.36675262     0              2.8493915      6.775812     
     63500   2.5043551      0.47909151     0              2.9771857      8.0805381    
     64000   2.6054747      0.44875147     0              3.0477125      7.8539572    
     64500   2.8057131      0.42150848     0              3.2202073      7.7706267    
     65000   2.7757693      0.31569532     0              3.0845252      6.3459382    
     65500   2.6590807      0.43567691     0              3.0881099      7.3560425    
     66000   2.590564       0.40586149     0              2.9899491      7.2867531    
     66500   2.4568667      0.42180389     0              2.8725284      7.2146586    
     67000   2.3596546      0.37551705     0              2.7292725      6.6927547    
     67500   2.2156592      0.36523842     0              2.5753584      6.686647     
     68000   2.2705331      0.355215       0              2.6200718      6.6804233    
     68500   2.3891965      0.31208263     0              2.6953062      6.17066      
     69000   2.3881277      0.36054575     0              2.7427032      6.881264     
     69500   2.3258108      0.33476125     0              2.6547575      6.4577878    
     70000   2.3639477      0.29549928     0              2.6535371      6.1715978    
     70500   2.4988977      0.29556416     0              2.7882146      6.2619677    
     71000   2.6126603      0.3494607      0              2.9555893      6.7741046    
     71500   2.553107       0.28935199     0              2.8360762      6.1503405    
     72000   2.4798732      0.25996896     0              2.7336425      5.6023654    
     72500   2.5559269      0.26727924     0              2.8168163      5.6926665    
     73000   2.5079673      0.36977348     0              2.8714709      6.7074137    
     73500   2.4607222      0.36455991     0              2.8191303      6.710706     
     74000   2.3456158      0.34954749     0              2.6892993      6.6054284    
     74500   2.3496645      0.35989647     0              2.7036868      6.6477881    
     75000   2.3887356      0.37496451     0              2.7577282      6.89537      
     75500   2.5607316      0.32305914     0              2.8773889      6.7850834    
     76000   2.4137394      0.29560235     0              2.7033074      6.0859511    
     76500   2.2971287      0.29442865     0              2.5858145      6.0662106    
     77000   2.2033987      0.36537015     0              2.5632603      6.739676     
     77500   2.2341741      0.29288777     0              2.5214765      6.0523371    
     78000   1.9762088      0.3277434      0              2.2990117      6.0985043    
     78500   2.0946915      0.28687471     0              2.3763295      5.8295505    
     79000   2.0178545      0.32644019     0              2.3392501      6.4127103    
     79500   2.119083       0.29992227     0              2.4137076      5.814707     
     80000   2.0353658      0.24330578     0              2.2735832      5.4083057    
     80500   2.0923913      0.26227613     0              2.3494364      5.6215947    
     81000   2.1224767      0.20125171     0              2.3184222      5.0417015    
     81500   2.0501288      0.20975545     0              2.2547589      5.0531599    
     82000   2.0359951      0.31396396     0              2.3448691      6.0586221    
     82500   2.0412597      0.26392184     0              2.3000784      5.7062008    
     83000   1.9852779      0.32430956     0              2.3046242      6.1247878    
     83500   2.0422798      0.26638139     0              2.3035555      5.5192704    
     84000   2.0354895      0.28813057     0              2.3185314      5.9396958    
     84500   2.0943851      0.27493901     0              2.3640881      5.892519     
     85000   2.1726524      0.2782064      0              2.4454272      5.6948122    
     85500   2.0617521      0.23694747     0              2.2935452      5.2729026    
     86000   1.9041139      0.2244818      0              2.1238354      4.9747392    
     86500   1.9141971      0.24167365     0              2.1510853      5.2047931    
     87000   1.8446202      0.25025687     0              2.0902655      5.386987     
     87500   1.6757232      0.25346556     0              1.9249994      4.9468051    
     88000   1.7926255      0.19226165     0              1.9804056      4.5764184    
     88500   1.8073286      0.24678066     0              2.0495909      5.1711891    
     89000   1.8690912      0.24460168     0              2.1090201      5.0886783    
     89500   1.9186159      0.2121         0              2.1259193      4.8650937    
     90000   1.8818217      0.23415263     0              2.1112698      5.1442302    
     90500   1.9695265      0.20831454     0              2.1729172      4.6324004    
     91000   1.8922657      0.19751301     0              2.085048       4.6423943    
     91500   1.8477545      0.31674619     0              2.1598813      5.7334494    
     92000   1.8047252      0.26671435     0              2.0669278      5.2854009    
     92500   1.7870917      0.29541173     0              2.0780357      5.6536789    
     93000   1.7301295      0.263144       0              1.9889482      5.3720939    
     93500   1.72886        0.27864551     0              2.0031833      5.2622011    
     94000   1.7399966      0.28617174     0              2.0218184      5.6762083    
     94500   1.7245899      0.22555212     0              1.9458306      4.827369     
     95000   1.6785686      0.21678658     0              1.8911587      4.5740936    
     95500   1.6322428      0.14478206     0              1.7729442      3.8043987    
     96000   1.4948244      0.21375432     0              1.7048416      4.6710438    
     96500   1.6180005      0.21832613     0              1.8322817      4.8646965    
     97000   1.5969319      0.20920846     0              1.802148       4.7246556    
     97500   1.4605882      0.21519902     0              1.6721357      4.4459471    
     98000   1.4780893      0.2477515      0              1.7221455      4.867427     
[...]

Performance: 26061836.575 tau/day, 30164.163 timesteps/s, 12.066 Matom-step/s
99.5% CPU use with 64 MPI tasks x 1 OpenMP threads

MPI task timing breakdown:
Section |  min time  |  avg time  |  max time  |%varavg| %total
---------------------------------------------------------------
Pair    | 0.013365   | 0.0145     | 0.015718   |   0.4 |  0.87
Neigh   | 0.018815   | 0.019447   | 0.021092   |   0.3 |  1.17
Comm    | 0.67683    | 0.76582    | 0.93086    |   7.8 | 46.20
Output  | 0.003632   | 0.0039423  | 0.0052171  |   0.3 |  0.24
Modify  | 0.27578    | 0.51096    | 0.64441    |  14.0 | 30.83
Other   |            | 0.3429     |            |       | 20.69

Nlocal:           6.25 ave           9 max           4 min
Histogram: 1 0 14 0 23 0 21 0 4 1
Nghost:        19.6562 ave          25 max          16 min
Histogram: 4 4 7 14 16 11 3 4 0 1
Neighs:        16.6406 ave          27 max          11 min
Histogram: 9 8 7 13 10 11 4 0 1 1

Total # of neighbors = 1065
Ave neighs/atom = 2.6625
Neighbor list builds = 16891
Dangerous builds = 0
Generated 0 of 0 mixed pair_coeff terms from geometric mixing rule
Setting up Verlet run ...
  Unit style    : lj
  Current step  : 50000
  Time step     : 0.01
Per MPI rank memory allocation (min/avg/max) = 3.068 | 3.068 | 3.068 Mbytes
   Step          Temp          E_pair         E_mol          TotEng         Press     
     50000   2.9819222      1.5870705      0              4.5615379      31.374881    
     50500   3.1128205      1.5558991      0              4.6609375      30.930257    
     51000   3.0357695      1.4563133      0              4.4844934      30.074747    
     51500   3.0106041      1.363064       0              4.3661417      28.555564    
     52000   2.6696806      1.8053109      0              4.4683174      34.791085    
     52500   2.6147157      1.6596294      0              4.2678083      31.73397     
     53000   2.9072445      1.563751       0              4.4637274      31.337912    
     53500   3.1217583      1.4066756      0              4.5206295      29.383698    
     54000   2.9463634      1.4772261      0              4.4162236      30.258004    
     54500   2.8072501      1.5992389      0              4.3994709      31.411643    
     55000   2.9423518      1.5442853      0              4.4792812      31.23088     
     55500   2.8545281      1.420605       0              4.2679967      29.111411    
     56000   2.7978894      1.4254883      0              4.216383       29.016829    
     56500   2.6766871      1.5107965      0              4.1807919      30.427588    
     57000   2.8236808      1.6037748      0              4.4203963      30.875481    
     57500   2.8226026      1.5779655      0              4.3935116      30.613845    
     58000   2.765293       1.4675215      0              4.2259013      30.210047    
     58500   2.7510617      1.4647668      0              4.2089508      30.042539    
     59000   2.7153982      1.4778936      0              4.1865033      29.463208    
     59500   2.7973101      1.448061       0              4.2383778      28.606441    
     60000   2.7782836      1.6163565      0              4.3876944      31.558616    
     60500   2.725805       1.5323914      0              4.2513819      30.1672      
     61000   2.7925287      1.4950838      0              4.2806312      30.142827    
     61500   2.5704176      1.334232       0              3.8982235      28.342631    
     62000   2.5624581      1.3901108      0              3.9461627      29.294063    
     62500   3.0332055      1.4836067      0              4.5092292      30.32853     
     63000   2.7475713      1.381399       0              4.1221014      28.414084    
     63500   2.6218644      1.4238247      0              4.0391345      28.63996     
     64000   2.5958577      1.4624556      0              4.0518237      29.294526    
     64500   2.6243133      1.4606162      0              4.0783688      29.478793    
     65000   2.6304915      1.3733023      0              3.9972175      28.663233    
     65500   2.5720502      1.3894305      0              3.9550506      28.695708    
     66000   2.4860494      1.3045412      0              3.7843755      27.354364    
     66500   2.440041       1.2562998      0              3.6902408      26.563405    
     67000   2.32139        1.3800438      0              3.6956303      28.646721    
     67500   2.5136723      1.2700093      0              3.7773974      26.913692    
     68000   2.4939089      1.1912318      0              3.6789059      25.919881    
     68500   2.427305       1.2230449      0              3.6442816      26.211405    
     69000   2.4442489      1.258378       0              3.6965163      26.963862    
     69500   2.6146632      1.2736501      0              3.8817767      26.560599    
     70000   2.4920425      1.231826       0              3.7176385      26.344224    
     70500   2.3246856      1.3094457      0              3.6283196      27.268986    
     71000   2.4968064      1.3396571      0              3.8302215      27.463595    
     71500   2.5616097      1.2617491      0              3.8169548      26.492569    
     72000   2.3558581      1.1754185      0              3.5253869      25.907736    
     72500   2.2686523      1.2535162      0              3.5164968      26.377746    
     73000   2.0894947      1.3427979      0              3.4270689      27.899226    
     73500   2.2468321      1.242797       0              3.484012       26.254554    
     74000   2.5172132      1.0569414      0              3.5678615      23.525223    
     74500   2.2976502      1.0953115      0              3.3872175      24.249024    
     75000   2.2517466      1.0692004      0              3.3153176      23.573143    
     75500   2.0924581      1.0760813      0              3.1633082      23.491507    
     76000   2.3269227      0.91642504     0              3.2375304      21.604716    
     76500   2.304666       0.99627439     0              3.2951788      23.134284    
     77000   2.0512261      1.2275155      0              3.2736135      25.57311     
     77500   2.1824371      1.051823       0              3.2288041      23.259379    
     78000   2.1999457      0.98424643     0              3.1786923      22.12754     
     78500   2.1071448      0.98547826     0              3.0873552      23.20721     
     79000   2.1785349      1.0221225      0              3.195211       22.861401    
     79500   2.175065       0.96229538     0              3.1319227      22.013813    
     80000   2.2361273      1.0028138      0              3.2333508      23.018541    
     80500   2.2345642      1.0265088      0              3.2554866      22.863086    
     81000   2.2121424      1.1264993      0              3.3331113      24.304707    
     81500   2.1468765      0.96497134     0              3.1064807      22.026015    
     82000   2.1468303      0.97092326     0              3.1123865      22.621128    
     82500   2.2097237      0.84975953     0              3.053959       20.656905    
     83000   2.1105639      0.96855132     0              3.0738388      21.799372    
     83500   2.2403577      1.0228347      0              3.2575916      22.638561    
     84000   2.0043664      0.9472181      0              2.9465736      22.117268    
     84500   1.9791127      0.90819565     0              2.8823606      20.968745    
     85000   2.0512337      0.94270259     0              2.9888082      21.91903     
     85500   2.0089452      0.85877411     0              2.8626969      20.428449    
     86000   1.906037       0.85769453     0              2.7589665      20.540938    
     86500   1.8259901      1.0029742      0              2.8243994      22.194336    
     87000   1.9242561      0.89162214     0              2.8110676      20.975299    
     87500   1.8223851      0.75895686     0              2.576786       18.294301    
     88000   1.830286       0.83209092     0              2.6578012      19.736395    
     88500   1.9386439      0.76167396     0              2.6954713      18.518808    
     89000   1.8395924      0.80921857     0              2.644212       18.982031    
     89500   1.8062441      0.72931303     0              2.5310415      17.806734    
     90000   1.8170166      0.85470298     0              2.667177       20.171658    
     90500   1.8616958      1.0333567      0              2.8903982      23.050425    
     91000   1.9191287      0.84111681     0              2.7554477      19.794546    
     91500   1.7804185      0.97766015     0              2.7536276      21.806087    
     92000   1.8321776      0.69380012     0              2.5213972      17.562005    
     92500   1.9310031      0.64232654     0              2.5685021      16.768866    
     93000   1.8632528      0.81294419     0              2.6715389      18.865035    
     93500   1.8791818      0.83861306     0              2.7130969      19.483073    
     94000   1.7313871      0.88024511     0              2.6073037      20.261646    
     94500   1.6905219      0.84388882     0              2.5301844      19.715805    
     95000   1.6921568      0.85592763     0              2.5438541      19.848106    
     95500   1.7219295      0.75477277     0              2.4723975      18.894629    
     96000   1.7462597      0.77534287     0              2.517237       18.870392    
     96500   1.844876       0.74618856     0              2.5864523      18.266338    
     97000   1.5782785      0.72920074     0              2.3035335      17.952444    
     97500   1.6072524      0.7203019      0              2.3235361      18.062796    
     98000   1.6136593      0.63643239     0              2.2460575      16.535002    
     98500   1.5639254      0.64181059     0              2.2018262      16.689709    
     99000   1.5389159      0.57655252     0              2.1116211      15.448257    
     99500   1.4411146      0.6323165      0              2.0698283      16.257486    
    100000   1.4913259      0.56265651     0              2.0502541      14.798705    
    100500   1.4951559      0.68986848     0              2.1812865      16.734771    
    101000   1.5256874      0.62440805     0              2.1462812      16.19644     
    101500   1.5460732      0.5074858      0              2.0496938      13.78142     
    102000   1.4864557      0.54038712     0              2.0231267      14.488092    
    102500   1.3870885      0.60216701     0              1.9857878      15.799677    
    103000   1.389544       0.67171289     0              2.057783       16.826562    
    103500   1.355802       0.5234773      0              1.8758898      14.238906    
    104000   1.3716824      0.51588318     0              1.8841363      14.197853    
    104500   1.4028443      0.5592344      0              1.9585715      14.882617    
    105000   1.4443053      0.52934202     0              1.9700365      14.226555    
    105500   1.4812327      0.60986327     0              2.0873929      16.072846    
    106000   1.451617       0.6041092      0              2.0520972      15.356717    
    106500   1.4166425      0.55832126     0              1.9714222      14.927077    
    107000   1.3503064      0.59787837     0              1.944809       15.395791    
    107500   1.3699644      0.48214258     0              1.848682       13.566028    
    108000   1.3603437      0.46135561     0              1.8182985      13.245338    
    108500   1.2521453      0.52070941     0              1.7697243      13.683583    
    109000   1.2424254      0.53064438     0              1.7699637      14.000611    
    109500   1.2493313      0.4929806      0              1.7391885      13.424207    
    110000   1.2596975      0.48613218     0              1.7426804      13.353565    
    110500   1.1555366      0.4300776      0              1.5827253      12.271141    
    111000   1.1933726      0.40836483     0              1.598754       11.925651    
    111500   1.1703781      0.45453933     0              1.6219915      12.696186    
    112000   1.1117927      0.48435336     0              1.5933666      12.899545    
    112500   1.1694863      0.47357712     0              1.6401397      12.899421    
    113000   1.2219413      0.4325957      0              1.6514821      12.837561    
    113500   1.2370303      0.43081181     0              1.6647495      12.463589    
    114000   1.1612076      0.57425776     0              1.7325623      14.62709     
    114500   1.1646772      0.44616869     0              1.6079342      12.347386    
    115000   1.1683743      0.46013876     0              1.6255921      13.125023    
    115500   1.1971845      0.51992795     0              1.7141195      13.962817    
    116000   1.1644728      0.43785316     0              1.5994148      12.913434    
    116500   1.1521079      0.43327719     0              1.5825049      12.37175     
    117000   1.1218619      0.40352078     0              1.522578       12.192684    
    117500   1.042865       0.43183312     0              1.472091       12.221758    
    118000   1.0580891      0.38001501     0              1.4354589      11.679244    
    118500   1.0023712      0.401852       0              1.4017173      11.572679    
    119000   1.0050101      0.45679909     0              1.4592967      12.793194    
    119500   1.047386       0.37784751     0              1.4226151      10.926277    
    120000   0.9621422      0.36969136     0              1.3294282      11.141482    
    120500   1.0103889      0.34400501     0              1.351868       10.364803    
    121000   0.95147818     0.32819176     0              1.2772913      10.590733    
    121500   0.92013899     0.29930482     0              1.2171435      9.5565226    
    122000   0.90112372     0.33188695     0              1.2307579      10.102138    
    122500   0.89346615     0.32080507     0              1.2120376      9.7579652    
    123000   0.91584073     0.30618946     0              1.2197406      9.8927582    
    123500   0.87350656     0.32233795     0              1.1936607      10.256729    
    124000   0.95441951     0.24101579     0              1.1930493      8.6130455    
    124500   0.91488773     0.23411355     0              1.1467141      8.6467064    
    125000   0.78099322     0.29454601     0              1.0735868      9.533832     
    125500   0.75740033     0.29371143     0              1.0492183      9.6246196    
    126000   0.82847896     0.24606456     0              1.0724723      8.4211583    
    126500   0.80911865     0.23081701     0              1.0379129      8.5146559    
    127000   0.75571755     0.26369454     0              1.0175228      8.6153351    
    127500   0.77496501     0.25554172     0              1.0285693      8.8647668    
    128000   0.73567167     0.25579017     0              0.98962265     8.8131227    
    128500   0.67037997     0.21798375     0              0.88668777     7.7875555    
    129000   0.68530141     0.20948241     0              0.89307056     7.6119704    
    129500   0.68145395     0.20994705     0              0.88969737     7.4894054    
    130000   0.65181992     0.24589624     0              0.89608661     8.0949789    
    130500   0.66152848     0.22458848     0              0.88446314     7.5980395    
    131000   0.66063071     0.20051041     0              0.85948953     7.390521     
    131500   0.64198411     0.23916508     0              0.87954423     7.9359867    
    132000   0.61219929     0.20697622     0              0.817645       7.6319973    
    132500   0.61675104     0.19033757     0              0.80554673     7.1745705    
    133000   0.6004619      0.1866578      0              0.78561854     6.7957425    
    133500   0.57848657     0.17131586     0              0.74835622     6.5376083    
    134000   0.52759349     0.18300577     0              0.70928027     6.6288954    
    134500   0.54467845     0.1529479      0              0.69626466     6.2473384    
    135000   0.51148788     0.17272566     0              0.68293482     6.6758519    
    135500   0.48034218     0.18136009     0              0.66050141     6.7012019    
    136000   0.49447982     0.15820125     0              0.65144487     6.0012582    
    136500   0.4469437      0.15739184     0              0.60321818     6.2305343    
    137000   0.49114281     0.11450986     0              0.60442481     4.8203861    
    137500   0.42984073     0.15708167     0              0.5858478      6.1464799    
    138000   0.46919535     0.10485407     0              0.57287644     4.5555904    
    138500   0.45950404     0.11980006     0              0.57815533     5.0140016    
    139000   0.46030733     0.1299509      0              0.58910746     5.1379979    
    139500   0.43624734     0.12597528     0              0.56113201     5.3212003    
    140000   0.41556656     0.10950167     0              0.52402932     4.8399121    
    140500   0.39565684     0.11891901     0              0.51358671     5.0913905    
    141000   0.3723955      0.098256464    0              0.46972098     4.1161457    
    141500   0.33556827     0.087252216    0              0.42198156     3.9323648    
    142000   0.32862857     0.094804071    0              0.42261107     4.4390215    
    142500   0.29290285     0.064291003    0              0.3564616      3.2824996    
    143000   0.27594976     0.086620719    0              0.36188061     4.1154866    
    143500   0.28779365     0.066373747    0              0.35344792     3.4259354    
    144000   0.26506686     0.066066397    0              0.33047059     3.4498147    
    144500   0.24722286     0.063873283    0              0.31047808     3.4133211    
    145000   0.2422352      0.048155687    0              0.2897853      2.7751376    
    145500   0.21233949     0.062092297    0              0.27390094     3.1261485    
    146000   0.21298349     0.050268239    0              0.26271927     2.8434979    
    146500   0.21006668     0.044147472    0              0.25368899     2.4876578    
    147000   0.19232317     0.047877481    0              0.23971984     2.7354769    
    147500   0.17297089     0.037630203    0              0.21016867     2.383237     
    148000   0.14636509     0.032100015    0              0.17809919     2.034912     
    148500   0.14807577     0.025627324    0              0.1733329      1.7653615    
    149000   0.11885914     0.023867002    0              0.142429       1.741092     
    149500   0.11575211     0.020330418    0              0.13579315     1.5315978    
    150000   0.10811231     0.019693062    0              0.12753509     1.5490926    
Loop time of 3.01763 on 64 procs for 100000 steps with 400 atoms

Performance: 28631698.898 tau/day, 33138.540 timesteps/s, 13.255 Matom-step/s
99.6% CPU use with 64 MPI tasks x 1 OpenMP threads

MPI task timing breakdown:
Section |  min time  |  avg time  |  max time  |%varavg| %total
---------------------------------------------------------------
Pair    | 0.024464   | 0.026478   | 0.028655   |   0.5 |  0.88
Neigh   | 0.026067   | 0.026922   | 0.029175   |   0.4 |  0.89
Comm    | 1.1276     | 1.294      | 1.6443     |  12.1 | 42.88
Output  | 0.081648   | 0.082259   | 0.082779   |   0.1 |  2.73
Modify  | 0.44936    | 0.9112     | 1.1746     |  20.8 | 30.20
Other   |            | 0.6768     |            |       | 22.43

Nlocal:           6.25 ave           8 max           4 min
Histogram: 1 0 7 0 0 32 0 23 0 1
Nghost:        19.9844 ave          23 max          18 min
Histogram: 5 0 16 0 25 0 12 0 5 1
Neighs:          18.25 ave          24 max          10 min
Histogram: 2 0 2 5 5 26 1 22 0 1

Total # of neighbors = 1168
Ave neighs/atom = 2.92
Neighbor list builds = 23954
Dangerous builds = 0
Total wall time: 0:00:04
