LAMMPS (15 Sep 2022)
OMP_NUM_THREADS environment is not set. Defaulting to 1 thread. (src/comm.cpp:98)
  using 1 OpenMP thread(s) per MPI task
Lattice spacing in x,y,z = 1.4142136 1.4142136 1.4142136
Created orthogonal box = (0 0 -0.70710678) to (28.284271 28.284271 0.70710678)
  8 by 8 by 1 MPI processor grid
Created 400 atoms
  using lattice units in orthogonal box = (0 0 -0.70710678) to (28.284271 28.284271 0.70710678)
  create_atoms CPU = 0.001 seconds
Generated 0 of 0 mixed pair_coeff terms from geometric mixing rule
Neighbor list info ...
  update: every = 1 steps, delay = 0 steps, check = yes
  max neighbors/atom: 2000, page size: 100000
  master list distance cutoff = 1.3
  ghost atom cutoff = 1.3
  binsize = 0.65, bins = 44 44 3
  1 neighbor lists, perpetual/occasional/extra = 1 0 0
  (1) pair lj/cut, perpetual
      attributes: half, newton on
      pair build: half/bin/atomonly/newton
      stencil: half/bin/2d
      bin: standard
Setting up Verlet run ...
  Unit style    : lj
  Current step  : 0
  Time step     : 0.01
Per MPI rank memory allocation (min/avg/max) = 3.047 | 3.047 | 3.047 Mbytes
   Step          Temp          E_pair         E_mol          TotEng         Press     
         0   3              0              0              2.9925         1.49625      
       500   2.9204778      0.26376087     0              3.1769375      3.7291204    
      1000   2.9449875      0.12067678     0              3.0583018      2.9173536    
      1500   2.9459373      0.25867176     0              3.1972442      3.7212346    
      2000   2.9809263      0.21806099     0              3.191535       3.6821164    
      2500   3.0351728      0.19007297     0              3.2176578      3.4059784    
      3000   2.9695446      0.2823957      0              3.2445164      4.0938137    
      3500   3.0801315      0.22055594     0              3.2929871      3.5893655    
      4000   3.3055618      0.18368765     0              3.4809855      3.4280834    
      4500   3.0922259      0.15489881     0              3.2393942      3.2312602    
      5000   3.0245146      0.17734105     0              3.1942943      3.3526422    
      5500   2.9217823      0.17951935     0              3.0939972      3.4443381    
      6000   2.7945804      0.19900768     0              2.9866017      3.3899017    
      6500   2.9358611      0.15118222     0              3.0797036      2.9917454    
      7000   2.6869832      0.20017433     0              2.88044        3.4069575    
      7500   2.8518016      0.25885872     0              3.1035308      3.6984427    
      8000   3.0307618      0.19809518     0              3.2212801      3.4077232    
      8500   3.0726241      0.27783931     0              3.3427819      4.0668893    
      9000   3.2081506      0.26342963     0              3.4635598      3.9997181    
      9500   3.0418414      0.14997843     0              3.1842153      3.1356305    
     10000   3.0082478      0.16203205     0              3.1627592      3.2895735    
     10500   2.8961109      0.23369484     0              3.1225654      3.5565142    
     11000   2.8702808      0.16408838     0              3.0271935      3.0590172    
     11500   2.7749944      0.22737492     0              2.9954318      3.4337923    
     12000   2.7741345      0.14671784     0              2.913917       2.9154772    
     12500   3.04249        0.19475425     0              3.2296381      3.4369466    
     13000   3.0106606      0.2150866      0              3.2182206      3.638659     
     13500   3.0951086      0.20715122     0              3.294522       3.5583067    
     14000   3.0000724      0.25314469     0              3.2457169      3.8898974    
     14500   3.1682784      0.20522648     0              3.3655842      3.5528715    
     15000   3.0263428      0.23208962     0              3.2508665      3.7413513    
     15500   2.948233       0.2434179      0              3.1842803      3.7426531    
     16000   2.967977       0.1743146      0              3.1348717      3.3026145    
     16500   2.8033934      0.260007       0              3.0563919      3.7654473    
     17000   2.7574102      0.16211317     0              2.9126298      3.0031061    
     17500   2.7096685      0.14001608     0              2.8429104      2.9362566    
     18000   2.8760681      0.24215714     0              3.1110351      3.535258     
     18500   3.0258688      0.17390585     0              3.19221        3.1713566    
     19000   3.1228174      0.16855124     0              3.2835616      3.291421     
     19500   3.0677048      0.23851279     0              3.2985483      3.7881911    
     20000   3.1181764      0.23144002     0              3.341821       3.8327468    
     20500   3.2111548      0.19990755     0              3.4030345      3.5099727    
     21000   3.1260705      0.22452435     0              3.3427797      3.7024518    
     21500   2.9904905      0.25416581     0              3.2371801      3.8119102    
     22000   2.9636942      0.23306071     0              3.1893457      3.6413849    
     22500   2.9330397      0.27928665     0              3.2049937      3.9503808    
     23000   3.0037586      0.24770719     0              3.2439564      3.8918887    
     23500   3.2462533      0.20857022     0              3.4467079      3.5532912    
     24000   3.4038227      0.18573238     0              3.5810455      3.4123374    
     24500   3.028515       0.32811164     0              3.3490554      4.385158     
     25000   3.1831669      0.16226454     0              3.3374735      3.2587778    
     25500   3.1265004      0.31490627     0              3.4335904      4.4462427    
     26000   2.7998077      0.22400476     0              3.016813       3.6581005    
     26500   2.9050563      0.14825069     0              3.0460443      3.0367054    
     27000   2.8949004      0.13830488     0              3.025968       2.9442827    
     27500   2.9454111      0.17900174     0              3.1170494      3.2810129    
     28000   2.9337501      0.164634       0              3.0910498      3.2359741    
     28500   2.9682936      0.17807814     0              3.138951       3.3803084    
     29000   2.8700967      0.23857482     0              3.1014962      3.7537901    
     29500   3.3630352      0.17399257     0              3.5286202      3.4906759    
     30000   3.1083401      0.23941545     0              3.3399847      3.7716145    
     30500   3.212426       0.17487804     0              3.379273       3.3813892    
     31000   3.0669212      0.26593959     0              3.3251935      4.2202661    
     31500   3.1026774      0.19545084     0              3.2903715      3.5855481    
     32000   2.9801334      0.23575741     0              3.2084404      3.6326467    
     32500   2.7773493      0.24441004     0              3.0148159      3.7252256    
     33000   2.9594859      0.18600678     0              3.138094       3.4549583    
     33500   2.8944151      0.22507889     0              3.1122579      3.6996289    
     34000   2.9476044      0.1658118      0              3.1060472      3.0953005    
     34500   2.8900483      0.28245915     0              3.1652823      4.0582703    
     35000   2.8517002      0.20681135     0              3.0513823      3.4228744    
     35500   2.9717128      0.25181749     0              3.216101       3.7475226    
     36000   3.0265407      0.2083995      0              3.2273738      3.547224     
     36500   3.1363916      0.2098725      0              3.3384231      3.5062356    
     37000   3.040915       0.27606826     0              3.309381       3.9387351    
     37500   3.1644964      0.20231087     0              3.358896       3.4721087    
     38000   3.0943609      0.24264519     0              3.3292702      3.6727169    
     38500   3.0555206      0.21221962     0              3.2601014      3.739009     
     39000   2.9838061      0.25191413     0              3.2282607      3.7971688    
     39500   2.6945547      0.18519828     0              2.8730166      3.3484378    
     40000   2.889235       0.15787194     0              3.0398839      3.1055806    
     40500   2.8759117      0.20592587     0              3.0746478      3.4123086    
     41000   2.8836061      0.26335437     0              3.1397515      3.9511452    
     41500   2.905315       0.17909474     0              3.0771465      3.2736763    
     42000   3.0042859      0.21395558     0              3.2107307      3.569906     
     42500   3.0068416      0.16959772     0              3.1689222      3.2805219    
     43000   2.9996283      0.19434763     0              3.1864768      3.4512029    
     43500   3.0725089      0.20854281     0              3.2733704      3.4879286    
     44000   3.069003       0.1421982      0              3.2035287      3.0873367    
     44500   3.0016105      0.27637782     0              3.2704843      3.8501063    
     45000   2.9651514      0.23956489     0              3.1973034      3.7671188    
     45500   3.0393354      0.24207789     0              3.273815       3.8234631    
     46000   2.9941074      0.21346723     0              3.2000893      3.6333401    
     46500   3.29069        0.18344652     0              3.4659098      3.4095856    
     47000   3.1053956      0.25264854     0              3.3502807      3.9619486    
     47500   3.1433597      0.21958304     0              3.3550844      3.7210622    
     48000   2.96106        0.29044026     0              3.2440976      4.0165869    
     48500   3.1294447      0.3402168      0              3.4618379      4.5633584    
     49000   3.1397972      0.25439758     0              3.3863453      3.9770395    
     49500   3.2191813      0.19580675     0              3.4069401      3.5475869    
     50000   3.1514658      0.17500294     0              3.3185901      3.3433137    
Loop time of 1.51194 on 64 procs for 50000 steps with 400 atoms

Performance: 28572532.590 tau/day, 33070.061 timesteps/s, 13.228 Matom-step/s
99.4% CPU use with 64 MPI tasks x 1 OpenMP threads

MPI task timing breakdown:
Section |  min time  |  avg time  |  max time  |%varavg| %total
---------------------------------------------------------------
Pair    | 0.0068496  | 0.0073829  | 0.0082357  |   0.3 |  0.49
Neigh   | 0.014485   | 0.015253   | 0.01627    |   0.3 |  1.01
Comm    | 0.63508    | 0.73111    | 0.83117    |   5.5 | 48.36
Output  | 0.0035411  | 0.0036512  | 0.0046311  |   0.2 |  0.24
Modify  | 0.26944    | 0.43182    | 0.55587    |  10.8 | 28.56
Other   |            | 0.3227     |            |       | 21.35

Nlocal:           6.25 ave          10 max           3 min
Histogram: 1 7 12 0 16 16 0 8 3 1
Nghost:        12.1719 ave          16 max           8 min
Histogram: 2 4 9 7 0 12 12 12 4 2
Neighs:         6.1875 ave          16 max           1 min
Histogram: 6 10 12 10 11 5 7 1 0 2

Total # of neighbors = 396
Ave neighs/atom = 0.99
Neighbor list builds = 16887
Dangerous builds = 0
Generated 0 of 0 mixed pair_coeff terms from geometric mixing rule
Setting up Verlet run ...
  Unit style    : lj
  Current step  : 50000
  Time step     : 0.01
Per MPI rank memory allocation (min/avg/max) = 3.068 | 3.068 | 3.068 Mbytes
   Step          Temp          E_pair         E_mol          TotEng         Press     
     50000   3.1514658      0.17500294     0              3.3185901      3.3433137    
     50500   3.1378399      0.20170023     0              3.3316955      3.5657182    
     51000   2.8464126      0.1969038      0              3.0362004      3.3849208    
     51500   2.7576002      0.21479554     0              2.9655018      3.5110313    
     52000   2.7291762      0.18539057     0              2.9077439      3.3430437    
     52500   2.7365591      0.26655182     0              2.9962695      3.8259121    
     53000   2.8938693      0.16319649     0              3.0498311      3.1516068    
     53500   2.952817       0.16004368     0              3.1054786      3.0894928    
     54000   2.9178217      0.19362506     0              3.1041522      3.3037151    
     54500   3.0561592      0.16960801     0              3.2181269      3.430368     
     55000   2.906247       0.21470201     0              3.1136834      3.4087446    
     55500   2.9268338      0.24223726     0              3.1617539      3.7841635    
     56000   2.7883178      0.1679263      0              2.9492733      3.2704525    
     56500   2.6365368      0.28123741     0              2.9111828      3.741593     
     57000   2.7010156      0.21363319     0              2.9078963      3.4165634    
     57500   2.6202015      0.24372425     0              2.8573752      3.6228264    
     58000   2.6483372      0.1500011      0              2.7917175      2.8623305    
     58500   2.6880578      0.2317659      0              2.9131036      3.5795682    
     59000   2.7950209      0.2339488      0              3.0219821      3.5724872    
     59500   2.7167039      0.34101065     0              3.0509228      4.2670061    
     60000   2.7657061      0.18252832     0              2.9413202      3.2537294    
     60500   2.8283947      0.21040197     0              3.0317256      3.3468634    
     61000   2.8439973      0.19733852     0              3.0342258      3.3789439    
     61500   2.7994142      0.22898098     0              3.0213966      3.6973425    
     62000   2.4839382      0.16025323     0              2.6379816      2.9874678    
     62500   2.5529421      0.1436027      0              2.6901624      2.7382429    
     63000   2.5985757      0.15599051     0              2.7480698      2.9972524    
     63500   2.4633432      0.2639801      0              2.721165       3.6185286    
     64000   2.5031912      0.19602247     0              2.6929557      3.246098     
     64500   2.3320634      0.12527571     0              2.4515089      2.600333     
     65000   2.3472864      0.1717821      0              2.5132003      3.1103802    
     65500   2.4910285      0.24560751     0              2.7304084      3.4272713    
     66000   2.7325088      0.099181244    0              2.8248587      2.5062555    
     66500   2.5443988      0.19266152     0              2.7306994      3.0565534    
     67000   2.7146306      0.14673133     0              2.8545753      2.9683269    
     67500   2.5694579      0.11682781     0              2.679862       2.6669971    
     68000   2.6392547      0.17974764     0              2.8124042      3.2332212    
     68500   2.4596658      0.21365278     0              2.6671694      3.3359224    
     69000   2.6071728      0.12204699     0              2.7227019      2.636042     
     69500   2.5174181      0.188738       0              2.6998626      3.176239     
     70000   2.3704455      0.24604859     0              2.610568       3.4480866    
     70500   2.4155792      0.15365766     0              2.563198       2.7838682    
     71000   2.3569135      0.17852442     0              2.5295456      2.9938854    
     71500   2.1728151      0.1268726      0              2.2942556      2.6428615    
     72000   2.2489646      0.13782459     0              2.3811668      2.6941581    
     72500   2.2923792      0.1463343      0              2.4329826      2.6894955    
     73000   2.2845077      0.17400561     0              2.4528021      2.9888497    
     73500   2.1822952      0.13516042     0              2.3119999      2.4565256    
     74000   2.3428559      0.083327756    0              2.4203265      2.1918815    
     74500   2.2762285      0.17866338     0              2.4492013      2.9489712    
     75000   2.3511634      0.18862618     0              2.5339117      2.9621397    
     75500   2.4634546      0.21645969     0              2.6737557      3.2289751    
     76000   2.3628438      0.19108747     0              2.5480242      2.9412501    
     76500   2.290553       0.12281139     0              2.407638       2.5182382    
     77000   2.1119867      0.17798466     0              2.2846914      2.899578     
     77500   2.01909        0.17292474     0              2.1869671      2.8471615    
     78000   1.8967718      0.12578865     0              2.0178185      2.4478088    
     78500   2.0882755      0.093481461    0              2.1765362      2.0590028    
     79000   2.1436022      0.11221565     0              2.2504589      2.3642048    
     79500   2.0209082      0.16220103     0              2.1780569      2.66146      
     80000   2.0813142      0.15279402     0              2.2289049      2.6626682    
     80500   2.143306       0.16859328     0              2.306541       2.8974721    
     81000   2.2677919      0.18539592     0              2.4475184      3.1064445    
     81500   2.213295       0.099783941    0              2.3075457      2.4486443    
     82000   2.0786685      0.12172497     0              2.1951968      2.4633141    
     82500   2.009341       0.098154846    0              2.1024725      2.2423405    
     83000   1.9609804      0.088393829    0              2.0444717      2.0856047    
     83500   1.9795444      0.13847253     0              2.113068       2.5538947    
     84000   1.9054699      0.1240045      0              2.0247107      2.3257098    
     84500   1.9732764      0.14632533     0              2.1146685      2.5849538    
     85000   2.0471956      0.13527845     0              2.177356       2.6037261    
     85500   1.9943197      0.13362399     0              2.1229579      2.5632909    
     86000   2.050151       0.14482386     0              2.1898495      2.6468073    
     86500   2.1024558      0.13173312     0              2.2289328      2.5611552    
     87000   2.0496432      0.12609678     0              2.1706159      2.5283962    
     87500   2.0019275      0.081703967    0              2.0786267      2.0414773    
     88000   1.9971486      0.11591343     0              2.1080691      2.3690443    
     88500   1.9364389      0.12160396     0              2.0532018      2.3695729    
     89000   1.8779579      0.1388853      0              2.0121483      2.4468078    
     89500   1.7636103      0.083957706    0              1.843159       1.8826835    
     90000   1.8528584      0.065752052    0              1.9139783      1.7150352    
     90500   1.7857087      0.074718662    0              1.8559631      1.8231152    
     91000   1.8830942      0.077828788    0              1.9562152      1.9353461    
     91500   1.9860415      0.14455057     0              2.125627       2.44624      
     92000   1.9180533      0.14168947     0              2.0549477      2.5189365    
     92500   1.7145711      0.11082128     0              1.8211059      2.0308311    
     93000   1.6531305      0.10857745     0              1.7575752      2.2447002    
     93500   1.6409574      0.10274097     0              1.739596       1.9450531    
     94000   1.5241124      0.13808258     0              1.6583847      2.2219159    
     94500   1.6895953      0.10554549     0              1.7909168      2.0577431    
     95000   1.7359632      0.10768649     0              1.8393098      2.2187199    
     95500   1.7844078      0.072208762    0              1.8521555      1.8601234    
     96000   1.7761221      0.10915067     0              1.8808325      2.1606521    
     96500   1.5978801      0.125881       0              1.7197664      2.3237365    
     97000   1.534133       0.14693851     0              1.6772362      2.4188459    
     97500   1.5614223      0.095607092    0              1.6531259      1.9774138    
     98000   1.5413377      0.066999801    0              1.6044842      1.7122278    
     98500   1.4499295      0.08829989     0              1.5346046      1.7793011    
     99000   1.490545       0.090667018    0              1.5774856      1.7752521    
     99500   1.5220266      0.088320685    0              1.6065422      1.8873393    
    100000   1.4129965      0.10068295     0              1.5101469      1.8714002    
    100500   1.6226497      0.064228152    0              1.6828212      1.6528851    
    101000   1.592776       0.096956847    0              1.6857509      1.9676214    
    101500   1.6024276      0.087934054    0              1.6863556      1.9030642    
    102000   1.4855578      0.088207752    0              1.5700516      1.8936718    
    102500   1.4032506      0.10004628     0              1.4997888      1.7821119    
    103000   1.3272776      0.08520283     0              1.4091623      1.7860938    
    103500   1.3926946      0.099963068    0              1.489176       1.9271786    
    104000   1.3705331      0.056022402    0              1.4231292      1.5001381    
    104500   1.2300396      0.073842115    0              1.3008066      1.5981232    
    105000   1.3417145      0.05325083     0              1.391611       1.43201      
    105500   1.3762222      0.071523129    0              1.4443048      1.6658211    
    106000   1.3372118      0.11363852     0              1.4475073      1.9642394    
    106500   1.4158405      0.1206967      0              1.5329976      2.0828784    
    107000   1.4312101      0.055942221    0              1.4835743      1.5801872    
    107500   1.4223177      0.073842624    0              1.4926045      1.6570495    
    108000   1.377093       0.055689283    0              1.4293396      1.4301501    
    108500   1.3511179      0.063450609    0              1.4111907      1.5487206    
    109000   1.2519482      0.075026232    0              1.3238445      1.6498327    
    109500   1.1705132      0.070446488    0              1.2380334      1.4830295    
    110000   1.2126873      0.066805322    0              1.2764609      1.5074257    
    110500   1.2608402      0.055176731    0              1.3128648      1.4155629    
    111000   1.2526826      0.081106981    0              1.3306579      1.6106737    
    111500   1.2716719      0.087863661    0              1.3563564      1.6255642    
    112000   1.2809536      0.067416611    0              1.3451678      1.5355403    
    112500   1.2050111      0.073596946    0              1.2755955      1.500741     
    113000   1.1719297      0.047411712    0              1.2164116      1.2559104    
    113500   1.0668184      0.054161781    0              1.1183131      1.2188159    
    114000   1.1018711      0.068635621    0              1.167752       1.4457592    
    114500   1.1711175      0.089506154    0              1.2576959      1.6702723    
    115000   1.1349498      0.087099232    0              1.2192116      1.6180791    
    115500   1.174104       0.042700022    0              1.2138687      1.2425093    
    116000   1.0078331      0.064356867    0              1.0696704      1.3866825    
    116500   1.0153971      0.041651416    0              1.0545101      1.1517638    
    117000   1.0305694      0.062818315    0              1.0908113      1.3803036    
    117500   0.95922054     0.052334868    0              1.0091574      1.2479605    
    118000   0.99910163     0.05013193     0              1.0467358      1.216249     
    118500   1.0115173      0.035396814    0              1.0443854      1.1060899    
    119000   1.0278663      0.055815135    0              1.0811118      1.2464271    
    119500   1.0623813      0.090792226    0              1.1505176      1.4894798    
    120000   1.060093       0.039720478    0              1.0971632      1.116166     
    120500   0.9294394      0.044102967    0              0.97121877     1.0943913    
    121000   0.89028018     0.043430021    0              0.9314845      1.0347682    
    121500   0.8973226      0.043048379    0              0.93812767     1.0942604    
    122000   0.91711865     0.041611514    0              0.95643737     1.0706668    
    122500   0.9385225      0.065430069    0              1.0016063      1.2864564    
    123000   0.91917512     0.045339689    0              0.96221687     1.165113     
    123500   0.91319982     0.026835003    0              0.93775182     0.9270489    
    124000   0.9297465      0.03878196     0              0.96620409     1.0735008    
    124500   0.80471799     0.04037714     0              0.84308333     1.0382409    
    125000   0.80552684     0.022691699    0              0.82620472     0.83351707   
    125500   0.78201312     0.047524388    0              0.82758247     1.1126495    
    126000   0.79109293     0.063000066    0              0.85211527     1.2390654    
    126500   0.78219861     0.038799085    0              0.8190422      0.9904487    
    127000   0.81114426     0.042153641    0              0.85127004     1.0375689    
    127500   0.76618544     0.045368031    0              0.80963801     1.0479317    
    128000   0.74998582     0.034841877    0              0.78295274     0.99204155   
    128500   0.74571404     0.04877601     0              0.79262577     1.07222      
    129000   0.68661089     0.036566371    0              0.72146074     0.9550009    
    129500   0.6733344      0.027941484    0              0.69959255     0.82429028   
    130000   0.65727442     0.022457392    0              0.67808863     0.74358735   
    130500   0.59799285     0.028304566    0              0.62480243     0.76119239   
    131000   0.6154907      0.027041692    0              0.64099366     0.77765231   
    131500   0.64940539     0.02933642     0              0.67711829     0.8610427    
    132000   0.65528959     0.029090849    0              0.68274221     0.83589179   
    132500   0.63923552     0.020912693    0              0.65855012     0.75949539   
    133000   0.61019665     0.019749583    0              0.62842074     0.72933213   
    133500   0.62460358     0.022353961    0              0.64539603     0.72268502   
    134000   0.57459775     0.021583172    0              0.59474442     0.7231599    
    134500   0.55896255     0.023942296    0              0.58150744     0.70484605   
    135000   0.52895482     0.030414721    0              0.55804715     0.75697537   
    135500   0.51367035     0.014367039    0              0.52675322     0.57237117   
    136000   0.47308895     0.022862576    0              0.49476881     0.67607461   
    136500   0.44902979     0.018572512    0              0.46647973     0.62441934   
    137000   0.47044035     0.017933675    0              0.48719793     0.56828512   
    137500   0.46977687     0.026706577    0              0.49530901     0.64975902   
    138000   0.46345786     0.019050262    0              0.48134948     0.61037618   
    138500   0.45816982     0.01795272     0              0.47497711     0.56165884   
    139000   0.39620323     0.017219542    0              0.41243227     0.53817462   
    139500   0.37511563     0.01392173     0              0.38809957     0.49534378   
    140000   0.38085842     0.0092879397   0              0.38919422     0.4048275    
    140500   0.36212762     0.014294453    0              0.37551675     0.43358301   
    141000   0.36180428     0.012706455    0              0.37360622     0.45956021   
    141500   0.36883049     0.010418609    0              0.37832702     0.42615763   
    142000   0.36201462     0.0098361614   0              0.37094574     0.45048275   
    142500   0.3176171      0.015990952    0              0.332814       0.50911702   
    143000   0.29365263     0.007436395    0              0.30035489     0.33548395   
    143500   0.27865311     0.010323601    0              0.28828008     0.38240013   
    144000   0.27108325     0.00646892     0              0.27687446     0.30081833   
    144500   0.25945051     0.010380321    0              0.26918221     0.39914485   
    145000   0.24232821     0.0077778811   0              0.24950027     0.28613825   
    145500   0.23677616     0.0049608793   0              0.2411451      0.25592168   
    146000   0.23277293     0.0033686351   0              0.23555963     0.23798901   
    146500   0.20205758     0.0070751039   0              0.20862754     0.29292554   
    147000   0.18783666     0.0072427751   0              0.19460985     0.31064905   
    147500   0.16918165     0.0048616486   0              0.17362034     0.22318979   
    148000   0.14763888     0.0041851078   0              0.15145489     0.20604254   
    148500   0.1456718      0.0034434336   0              0.14875105     0.17517757   
    149000   0.14311921     0.0054875955   0              0.14824901     0.22651651   
    149500   0.10800284     0.0042141943   0              0.11194702     0.1795045    
    150000   0.099788536    0.0016230573   0              0.10116212     0.11536312   
Loop time of 3.00107 on 64 procs for 100000 steps with 400 atoms

Performance: 28789710.619 tau/day, 33321.424 timesteps/s, 13.329 Matom-step/s
99.4% CPU use with 64 MPI tasks x 1 OpenMP threads

MPI task timing breakdown:
Section |  min time  |  avg time  |  max time  |%varavg| %total
---------------------------------------------------------------
Pair    | 0.012684   | 0.013686   | 0.015537   |   0.4 |  0.46
Neigh   | 0.021366   | 0.022349   | 0.023975   |   0.4 |  0.74
Comm    | 1.1252     | 1.2999     | 1.4947     |   8.4 | 43.31
Output  | 0.17395    | 0.17414    | 0.17584    |   0.1 |  5.80
Modify  | 0.50729    | 0.84523    | 1.0675     |  15.5 | 28.16
Other   |            | 0.6458     |            |       | 21.52

Nlocal:           6.25 ave          10 max           2 min
Histogram: 1 1 4 11 0 20 16 8 2 1
Nghost:        12.4219 ave          19 max           9 min
Histogram: 4 3 10 17 17 8 2 1 1 1
Neighs:              6 ave          14 max           0 min
Histogram: 1 3 16 8 10 18 1 5 1 1

Total # of neighbors = 384
Ave neighs/atom = 0.96
Neighbor list builds = 24762
Dangerous builds = 0
Total wall time: 0:00:04
LAMMPS (15 Sep 2022)
OMP_NUM_THREADS environment is not set. Defaulting to 1 thread. (src/comm.cpp:98)
  using 1 OpenMP thread(s) per MPI task
Lattice spacing in x,y,z = 1.2909944 1.2909944 1.2909944
Created orthogonal box = (0 0 -0.64549722) to (25.819889 25.819889 0.64549722)
  8 by 8 by 1 MPI processor grid
Created 400 atoms
  using lattice units in orthogonal box = (0 0 -0.64549722) to (25.819889 25.819889 0.64549722)
  create_atoms CPU = 0.001 seconds
Generated 0 of 0 mixed pair_coeff terms from geometric mixing rule
Neighbor list info ...
  update: every = 1 steps, delay = 0 steps, check = yes
  max neighbors/atom: 2000, page size: 100000
  master list distance cutoff = 1.3
  ghost atom cutoff = 1.3
  binsize = 0.65, bins = 40 40 2
  1 neighbor lists, perpetual/occasional/extra = 1 0 0
  (1) pair lj/cut, perpetual
      attributes: half, newton on
      pair build: half/bin/atomonly/newton
      stencil: half/bin/2d
      bin: standard
Setting up Verlet run ...
  Unit style    : lj
  Current step  : 0
  Time step     : 0.01
Per MPI rank memory allocation (min/avg/max) = 3.047 | 3.047 | 3.047 Mbytes
   Step          Temp          E_pair         E_mol          TotEng         Press     
         0   3              0              0              2.9925         1.7955       
       500   2.8087584      0.29048177     0              3.0922183      5.1675806    
      1000   2.8534539      0.2962085      0              3.1425287      5.1755095    
      1500   2.8418088      0.22317096     0              3.0578752      4.4442217    
      2000   2.8008074      0.31990771     0              3.1137131      5.3704368    
      2500   2.8582211      0.33696354     0              3.1880391      5.5586654    
      3000   2.9223976      0.27846402     0              3.1935556      5.2121575    
      3500   2.9777507      0.22579851     0              3.1961048      4.5742326    
      4000   2.5869258      0.31938576     0              2.8998442      5.2095069    
      4500   2.9326473      0.26738157     0              3.1926973      4.9265162    
      5000   2.9871868      0.35846336     0              3.3381822      5.6186357    
      5500   2.9795256      0.30620415     0              3.278281       5.3794504    
      6000   3.0772115      0.24717355     0              3.316692       5.033969     
      6500   3.1158425      0.31774741     0              3.4258003      5.6217093    
      7000   3.2154257      0.39641765     0              3.6038047      6.2823078    
      7500   3.1633469      0.26389666     0              3.4193352      5.1926685    
      8000   3.1162663      0.34557319     0              3.4540488      5.8207309    
      8500   3.3223543      0.2977154      0              3.6117638      5.4177021    
      9000   2.9653831      0.39547218     0              3.3534418      6.1034467    
      9500   2.989071       0.29373984     0              3.2753382      5.181595     
     10000   2.8748595      0.27727879     0              3.1449512      5.092411     
     10500   2.7930697      0.28563878     0              3.0717258      5.2757536    
     11000   2.7799625      0.23169062     0              3.0047033      4.6064707    
     11500   2.9293242      0.27987861     0              3.2018795      4.9174216    
     12000   2.9663846      0.32484321     0              3.2838118      5.6590221    
     12500   2.9896602      0.32264554     0              3.3048316      5.3971458    
     13000   3.0847333      0.31728675     0              3.3943082      5.7648191    
     13500   3.1578707      0.30073801     0              3.450714       5.4406048    
     14000   3.170745       0.24794438     0              3.4107625      5.1221752    
     14500   3.1144716      0.35944998     0              3.4661354      5.7509683    
     15000   3.2582048      0.30466573     0              3.554725       5.549232     
     15500   3.3679571      0.26226257     0              3.6217997      5.1293157    
     16000   2.8570895      0.34168895     0              3.1916357      5.6660671    
     16500   2.8524413      0.35063239     0              3.1959426      5.6111585    
     17000   2.8289624      0.34381345     0              3.1657035      5.4593111    
     17500   2.851884       0.374805       0              3.2195593      5.6257025    
     18000   2.9345805      0.29529234     0              3.2225364      4.9312851    
     18500   2.9136302      0.28982645     0              3.1961726      4.9171602    
     19000   3.1344107      0.29282019     0              3.4193949      5.2485562    
     19500   3.095227       0.31015134     0              3.3976403      5.4176042    
     20000   3.2087334      0.25939554     0              3.4601071      4.9283107    
     20500   3.0450892      0.30674644     0              3.3442229      5.1570139    
     21000   3.1734734      0.36393674     0              3.5294764      6.0771765    
     21500   3.0135818      0.33046832     0              3.3365161      5.6809682    
     22000   3.065489       0.33827789     0              3.3961032      5.6060277    
     22500   3.0911093      0.19593142     0              3.279313       4.4516244    
     23000   2.7610675      0.21944129     0              2.9736061      4.5669135    
     23500   3.003243       0.26568625     0              3.2614211      4.9188658    
     24000   2.9547032      0.28758282     0              3.2348993      5.2636994    
     24500   2.927666       0.43252311     0              3.35287        6.0849153    
     25000   2.9293884      0.42222869     0              3.3442936      6.2873678    
     25500   2.9469315      0.25445188     0              3.194016       5.0389649    
     26000   3.1452681      0.29356198     0              3.4309669      5.3296661    
     26500   3.1083346      0.31009046     0              3.4106542      5.3910303    
     27000   3.1722341      0.2607042      0              3.4250077      5.0781644    
     27500   2.856378       0.34280836     0              3.1920454      5.6067517    
     28000   2.9066174      0.30067631     0              3.2000272      4.9684194    
     28500   2.8726598      0.38176293     0              3.2472411      5.9608885    
     29000   3.0015252      0.23986401     0              3.2338854      4.7917764    
     29500   2.9387517      0.31782595     0              3.2492307      5.7270517    
     30000   2.8196121      0.18733703     0              2.9999001      4.2825013    
     30500   2.7229675      0.26598627     0              2.9821463      4.7738818    
     31000   2.9726136      0.38711399     0              3.3522961      5.9508218    
     31500   3.1657921      0.28638795     0              3.4442655      5.4181582    
     32000   3.0627518      0.37750436     0              3.4325993      6.2138595    
     32500   3.2151343      0.30813626     0              3.5152327      5.4313348    
     33000   2.9269337      0.35685366     0              3.27647        5.7867283    
     33500   3.0098634      0.28986833     0              3.2922071      5.2573427    
     34000   2.9123141      0.382525       0              3.2875583      6.0036532    
     34500   3.0512674      0.3051868      0              3.348826       5.6207909    
     35000   2.9310644      0.39280763     0              3.3165443      5.9579661    
     35500   3.1855497      0.28192407     0              3.4595099      5.3248597    
     36000   3.2519151      0.32720511     0              3.5709904      5.7369986    
     36500   3.0767704      0.35772291     0              3.4268013      5.9471       
     37000   3.0492892      0.28289454     0              3.3245605      5.1912936    
     37500   3.1036748      0.28359488     0              3.3795105      5.2560004    
     38000   3.0267169      0.24438287     0              3.263533       4.9180162    
     38500   2.7976867      0.35646902     0              3.1471615      5.5319075    
     39000   2.7240458      0.24941783     0              2.9666536      4.6445911    
     39500   2.9252158      0.25642926     0              3.174332       4.9441286    
     40000   2.8407586      0.33095818     0              3.1646148      5.2593989    
     40500   2.7152669      0.27073566     0              2.9792144      5.0003806    
     41000   2.9150058      0.26852434     0              3.1762426      5.0102024    
     41500   3.0293534      0.31642224     0              3.3382022      5.4150014    
     42000   3.1070465      0.33141195     0              3.4306908      5.6471554    
     42500   3.095585       0.30118425     0              3.3890303      5.5243204    
     43000   3.2052753      0.2753418      0              3.4726039      5.2231844    
     43500   3.2426514      0.37216988     0              3.6067147      6.1391977    
     44000   2.8933377      0.33290063     0              3.219005       5.5914553    
     44500   2.9698274      0.26014277     0              3.2225456      4.8439199    
     45000   2.8411484      0.33196586     0              3.1660114      5.5190634    
     45500   2.682662       0.35837499     0              3.0343303      5.4986904    
     46000   2.8183448      0.30056716     0              3.1118661      5.0759136    
     46500   2.8886736      0.26136125     0              3.1428132      5.0083888    
     47000   2.9627085      0.2415833      0              3.196885       4.8444943    
     47500   3.159223       0.37110802     0              3.522433       5.9410821    
     48000   3.0736891      0.29392299     0              3.3599278      5.0964475    
     48500   3.1932569      0.27262345     0              3.4578972      5.0730396    
     49000   3.1012778      0.30414285     0              3.3976674      5.1395971    
     49500   3.1348236      0.26284554     0              3.3898321      5.0973036    
     50000   3.2037885      0.40303559     0              3.5988146      6.324222     
Loop time of 1.53135 on 64 procs for 50000 steps with 400 atoms

Performance: 28210460.749 tau/day, 32650.996 timesteps/s, 13.060 Matom-step/s
99.4% CPU use with 64 MPI tasks x 1 OpenMP threads

MPI task timing breakdown:
Section |  min time  |  avg time  |  max time  |%varavg| %total
---------------------------------------------------------------
Pair    | 0.0076565  | 0.00836    | 0.00899    |   0.3 |  0.55
Neigh   | 0.015716   | 0.016383   | 0.017996   |   0.4 |  1.07
Comm    | 0.65567    | 0.74904    | 0.8589     |   5.9 | 48.91
Output  | 0.0038638  | 0.0040163  | 0.0056644  |   0.3 |  0.26
Modify  | 0.25638    | 0.42917    | 0.54902    |  11.3 | 28.03
Other   |            | 0.3244     |            |       | 21.18

Nlocal:           6.25 ave          10 max           4 min
Histogram: 6 14 0 18 0 14 9 0 2 1
Nghost:        14.7344 ave          19 max          11 min
Histogram: 2 5 8 16 0 12 9 8 3 1
Neighs:        7.60938 ave          17 max           0 min
Histogram: 3 3 12 8 17 8 3 6 2 2

Total # of neighbors = 487
Ave neighs/atom = 1.2175
Neighbor list builds = 16920
Dangerous builds = 0
Generated 0 of 0 mixed pair_coeff terms from geometric mixing rule
Setting up Verlet run ...
  Unit style    : lj
  Current step  : 50000
  Time step     : 0.01
Per MPI rank memory allocation (min/avg/max) = 3.068 | 3.068 | 3.068 Mbytes
   Step          Temp          E_pair         E_mol          TotEng         Press     
     50000   3.2037885      0.40303559     0              3.5988146      6.324222     
     50500   3.0574758      0.35731997     0              3.407152       5.8272328    
     51000   3.0493254      0.28322878     0              3.3249308      5.173024     
     51500   3.0371218      0.23093848     0              3.2604675      4.582069     
     52000   2.9351008      0.35115324     0              3.2789163      5.7827516    
     52500   2.8766039      0.30824321     0              3.1776556      5.126284     
     53000   2.5441686      0.35030472     0              2.8881129      5.4588216    
     53500   2.6129476      0.41115507     0              3.0175703      6.0293596    
     54000   2.8341702      0.29432224     0              3.121407       5.2094694    
     54500   2.6578698      0.27336207     0              2.9245872      4.881087     
     55000   2.6222282      0.24656489     0              2.8622375      4.3821603    
     55500   2.6208975      0.38535672     0              2.999702       5.885361     
     56000   2.7641671      0.24644238     0              3.003699       4.7521877    
     56500   2.6758998      0.26978423     0              2.9389942      4.9833828    
     57000   2.742904       0.32911851     0              3.0651652      5.4703557    
     57500   2.8738314      0.28596527     0              3.1526121      4.9736302    
     58000   3.0380242      0.32947862     0              3.3599078      5.7499817    
     58500   3.1125238      0.270733       0              3.3754754      5.063391     
     59000   2.8370161      0.35247427     0              3.1823978      5.6816962    
     59500   2.6064445      0.42682083     0              3.0267492      6.2898495    
     60000   2.7112277      0.31375532     0              3.018205       5.151776     
     60500   2.8276861      0.15540424     0              2.9760211      3.9854546    
     61000   2.6851895      0.2582621      0              2.9367387      4.730494     
     61500   2.3533636      0.24289529     0              2.5903755      4.4920756    
     62000   2.4892445      0.19932916     0              2.6823506      4.1091368    
     62500   2.6908491      0.16687918     0              2.8510012      3.9854376    
     63000   2.7684429      0.22466505     0              2.9861869      4.5651198    
     63500   2.6189327      0.26844526     0              2.8808306      4.8608579    
     64000   2.7003214      0.27587697     0              2.9694476      5.0983422    
     64500   2.6833282      0.17044195     0              2.8470619      4.0150171    
     65000   2.7053585      0.28416393     0              2.982759       4.9244188    
     65500   2.6038706      0.38200756     0              2.9793685      5.7875366    
     66000   2.4682735      0.22624226     0              2.688345       4.2154859    
     66500   2.3742907      0.1926072      0              2.5609622      4.035565     
     67000   2.4676532      0.1557783      0              2.6172624      3.5452812    
     67500   2.4483027      0.27231807     0              2.7145         4.6910478    
     68000   2.5789694      0.30643637     0              2.8789583      5.1205947    
     68500   2.7519322      0.26087998     0              3.0059323      4.8118897    
     69000   2.5771446      0.22172836     0              2.7924301      4.3313095    
     69500   2.4670624      0.20202197     0              2.6629167      4.1969629    
     70000   2.2953341      0.27328199     0              2.5628777      4.596602     
     70500   2.1175934      0.20192279     0              2.3142222      3.859006     
     71000   2.241165       0.26237746     0              2.4979395      4.2750612    
     71500   2.2352849      0.27847578     0              2.5081725      4.5397713    
     72000   2.2829948      0.17133272     0              2.4486201      3.6529547    
     72500   2.4542773      0.26675241     0              2.7148941      4.6120414    
     73000   2.5420274      0.24865338     0              2.7843257      4.5200404    
     73500   2.4211145      0.20973065     0              2.6247923      4.1611971    
     74000   2.2765582      0.25523438     0              2.5261012      4.48446      
     74500   2.3065037      0.17258251     0              2.47332        3.7392586    
     75000   2.232075       0.20885558     0              2.4353504      3.9636986    
     75500   2.1572066      0.22625391     0              2.3780675      4.1852077    
     76000   2.0761034      0.21850095     0              2.2894141      4.0776651    
     76500   2.055346       0.15752637     0              2.207734       3.4480871    
     77000   2.0210292      0.19849475     0              2.2144714      3.9431013    
     77500   2.141938       0.22358951     0              2.3601727      4.0221432    
     78000   2.1686193      0.14126605     0              2.3044638      3.2116157    
     78500   2.1122613      0.13462515     0              2.2416058      3.2597409    
     79000   2.0915715      0.24966653     0              2.3360091      4.3522158    
     79500   2.0218901      0.17910772     0              2.1959431      3.5665473    
     80000   2.1387815      0.15766575     0              2.2911003      3.4523454    
     80500   2.0750646      0.13793925     0              2.2078162      3.2331984    
     81000   2.0845071      0.19411712     0              2.273413       3.7855653    
     81500   2.0850971      0.25129404     0              2.3311784      4.1745994    
     82000   2.2472757      0.25418809     0              2.4958456      4.2770703    
     82500   2.1960496      0.18568532     0              2.3762448      3.6255483    
     83000   2.1447753      0.17849871     0              2.3179121      3.5862003    
     83500   2.1652671      0.17251203     0              2.332366       3.6475597    
     84000   2.1312248      0.2000834      0              2.3259801      3.8670748    
     84500   1.9692061      0.22136268     0              2.1856458      4.103941     
     85000   2.0933705      0.18053521     0              2.2686722      3.561868     
     85500   2.1542598      0.17726755     0              2.3261417      3.6844084    
     86000   2.0919684      0.15431703     0              2.2410555      3.4222672    
     86500   1.9901968      0.23579576     0              2.2210171      4.1207017    
     87000   2.0994168      0.21934191     0              2.3135102      4.0662031    
     87500   2.0248275      0.21346696     0              2.2332323      4.1393735    
     88000   1.9019826      0.17371426     0              2.0709419      3.4944848    
     88500   1.8998577      0.2050132      0              2.1001212      3.6993922    
     89000   1.8864312      0.1774427      0              2.0591579      3.5597342    
     89500   1.812427       0.13050622     0              1.9384021      2.9408331    
     90000   1.7193915      0.17518717     0              1.8902802      3.4223393    
     90500   1.6963392      0.13010302     0              1.8222014      2.9054695    
     91000   1.7907971      0.18332858     0              1.9696487      3.5676958    
     91500   1.8009817      0.1774352      0              1.9739145      3.6594216    
     92000   1.8380876      0.18609376     0              2.0195861      3.7156124    
     92500   1.9464961      0.1171147      0              2.0587446      2.9338075    
     93000   1.7694339      0.11155222     0              1.8765625      2.7628352    
     93500   1.6690924      0.15034725     0              1.8152669      3.2157319    
     94000   1.5960741      0.18419982     0              1.7762838      3.3223039    
     94500   1.6800911      0.11765648     0              1.7935474      2.7686912    
     95000   1.8575555      0.17161857     0              2.0245302      3.4402686    
     95500   1.8630453      0.14282767     0              2.0012154      3.1326396    
     96000   1.7253096      0.17292904     0              1.8939254      3.2533767    
     96500   1.7060205      0.12413113     0              1.8258866      2.9377418    
     97000   1.6178508      0.16422427     0              1.7780304      3.2604608    
     97500   1.5884674      0.13747326     0              1.7219695      2.9459432    
     98000   1.5157609      0.11499024     0              1.6269618      2.6591888    
     98500   1.6076921      0.11067526     0              1.7143481      2.6984529    
     99000   1.4884357      0.15533252     0              1.6400471      3.1249078    
     99500   1.4313966      0.12457364     0              1.5523918      2.6688511    
    100000   1.4903307      0.11160427     0              1.5982091      2.6793432    
    100500   1.5595598      0.15462606     0              1.7102869      3.0818321    
    101000   1.615837       0.12770512     0              1.7395026      2.7189591    
    101500   1.6027504      0.10388163     0              1.7026252      2.6107053    
    102000   1.4025469      0.12034835     0              1.5193889      2.7691778    
    102500   1.3897763      0.092753336    0              1.4790552      2.4106624    
    103000   1.3894137      0.11557897     0              1.5015192      2.5926585    
    103500   1.4096016      0.12646764     0              1.5325452      2.662209     
    104000   1.3697889      0.11984477     0              1.4862092      2.6301683    
    104500   1.363849       0.10674433     0              1.4671837      2.4503996    
    105000   1.2647597      0.083171088    0              1.3447689      2.1089904    
    105500   1.3601866      0.12501406     0              1.4818001      2.6797118    
    106000   1.3775315      0.12645344     0              1.5005411      2.65911      
    106500   1.3853782      0.12511751     0              1.5070322      2.6630181    
    107000   1.3818292      0.082055756    0              1.4604304      2.230436     
    107500   1.282827       0.081779438    0              1.3613994      2.1649592    
    108000   1.316066       0.094830245    0              1.4076061      2.217976     
    108500   1.3259128      0.10086938     0              1.4234674      2.2730112    
    109000   1.2883016      0.13852689     0              1.4236077      2.6493207    
    109500   1.307762       0.1289819      0              1.4334745      2.7700356    
    110000   1.3625771      0.095315069    0              1.4544857      2.4585861    
    110500   1.320414       0.11443763     0              1.4315505      2.571674     
    111000   1.2069527      0.091498428    0              1.2954337      2.2705977    
    111500   1.1580393      0.0862724      0              1.2414166      2.1817974    
    112000   1.11293        0.11627187     0              1.2264195      2.3363454    
    112500   1.1759817      0.070576919    0              1.2436187      1.9917335    
    113000   1.2477648      0.089778135    0              1.3344235      2.2566591    
    113500   1.1745156      0.099328725    0              1.2709081      2.3857537    
    114000   1.2143515      0.096949958    0              1.3082655      2.3158949    
    114500   1.1607289      0.071677122    0              1.2295042      2.0001906    
    115000   1.1222239      0.069616712    0              1.1890351      1.8613992    
    115500   1.0253056      0.093931453    0              1.1166738      2.1248054    
    116000   1.0546849      0.061004025    0              1.1130522      1.740302     
    116500   1.0366387      0.094137377    0              1.1281845      2.192311     
    117000   1.0197624      0.070515289    0              1.0877283      1.8495505    
    117500   1.0495756      0.071552151    0              1.1185038      1.8084449    
    118000   1.087463       0.12134068     0              1.206085       2.4090821    
    118500   1.1099879      0.060114852    0              1.1673278      1.7907973    
    119000   0.97804059     0.068570299    0              1.0441658      1.8116845    
    119500   0.95079948     0.062721411    0              1.0111439      1.5601775    
    120000   0.92135983     0.066752426    0              0.98580886     1.7549378    
    120500   0.97970727     0.078902721    0              1.0561607      2.0100486    
    121000   1.0123313      0.076451631    0              1.0862521      1.8975642    
    121500   0.94996822     0.08022807     0              1.0278214      1.988554     
    122000   0.909071       0.054029025    0              0.96082735     1.5316281    
    122500   0.86181535     0.037887168    0              0.89754798     1.3942448    
    123000   0.83012386     0.047418361    0              0.87546691     1.3775641    
    123500   0.83644816     0.069673282    0              0.90403032     1.6663454    
    124000   0.8613351      0.060923337    0              0.9201051      1.5010019    
    124500   0.85966542     0.07506713     0              0.93258339     1.7710596    
    125000   0.8946786      0.063621953    0              0.95606385     1.7035007    
    125500   0.83838287     0.048240345    0              0.88452725     1.4378608    
    126000   0.76694682     0.062144428    0              0.82717388     1.6088368    
    126500   0.77920352     0.035090683    0              0.81234619     1.2844999    
    127000   0.74686134     0.044616708    0              0.7896109      1.3829727    
    127500   0.73180655     0.045466091    0              0.77544313     1.3200742    
    128000   0.7320431      0.055703507    0              0.7859165      1.49336      
    128500   0.78036313     0.049090531    0              0.82750276     1.4543097    
    129000   0.68688477     0.067628169    0              0.75279573     1.6095098    
    129500   0.71056309     0.048472569    0              0.75725925     1.3917607    
    130000   0.70098971     0.061991791    0              0.76122902     1.5910069    
    130500   0.7343147      0.073423476    0              0.80590239     1.7296026    
    131000   0.67888733     0.057906614    0              0.73509673     1.475925     
    131500   0.64102944     0.041785374    0              0.68121224     1.2138813    
    132000   0.58492414     0.05255731     0              0.63601914     1.3557376    
    132500   0.59602279     0.030496026    0              0.62502876     1.0368756    
    133000   0.59421729     0.035946547    0              0.62867829     1.0522069    
    133500   0.56328613     0.033706557    0              0.59558447     1.1175494    
    134000   0.52570587     0.038633187    0              0.56302479     1.1323055    
    134500   0.53096345     0.049902234    0              0.57953828     1.2940113    
    135000   0.51259823     0.029796928    0              0.54111366     0.95358183   
    135500   0.51200305     0.04600553     0              0.55672857     1.0681172    
    136000   0.5063323      0.041913634    0              0.5469801      1.1641616    
    136500   0.50667077     0.026602796    0              0.53200689     0.93351728   
    137000   0.48283824     0.028990827    0              0.51062197     0.98960603   
    137500   0.46456763     0.03102417     0              0.49443038     0.96130557   
    138000   0.4789584      0.042555679    0              0.52031668     1.1293738    
    138500   0.47894008     0.022212426    0              0.49995515     0.81765924   
    139000   0.45363825     0.017667767    0              0.47017193     0.74275897   
    139500   0.39999448     0.020609304    0              0.4196038      0.77482828   
    140000   0.37757184     0.02232194     0              0.39894985     0.73912142   
    140500   0.35174332     0.02200512     0              0.37286908     0.79635823   
    141000   0.29235996     0.022023124    0              0.31365218     0.69707554   
    141500   0.32867538     0.018644481    0              0.34649817     0.68919288   
    142000   0.33792376     0.0085581574   0              0.34563711     0.51135033   
    142500   0.3400452      0.010863078    0              0.35005817     0.55023282   
    143000   0.29707128     0.021994049    0              0.31832265     0.74088745   
    143500   0.30298141     0.010230334    0              0.31245429     0.53143768   
    144000   0.29508293     0.011879259    0              0.30622448     0.53796639   
    144500   0.26317421     0.017104183    0              0.27962046     0.62275793   
    145000   0.24052941     0.015471528    0              0.25539961     0.5583669    
    145500   0.22301497     0.012435229    0              0.23489266     0.49355873   
    146000   0.20669291     0.0091606802   0              0.21533686     0.39198449   
    146500   0.19752609     0.0082921887   0              0.20532447     0.38996056   
    147000   0.19389982     0.0053118458   0              0.19872692     0.35308669   
    147500   0.1735645      0.0092408772   0              0.18237146     0.40328827   
    148000   0.17658143     0.0063042134   0              0.18244419     0.32008131   
    148500   0.14106808     0.0036667917   0              0.14438221     0.26535941   
    149000   0.12885342     0.0066564454   0              0.13518773     0.31076593   
    149500   0.12100119     0.0053036935   0              0.12600238     0.27996249   
    150000   0.099287526    0.0035736901   0              0.102613       0.21455501   
Loop time of 2.96998 on 64 procs for 100000 steps with 400 atoms

Performance: 29091069.866 tau/day, 33670.220 timesteps/s, 13.468 Matom-step/s
99.5% CPU use with 64 MPI tasks x 1 OpenMP threads

MPI task timing breakdown:
Section |  min time  |  avg time  |  max time  |%varavg| %total
---------------------------------------------------------------
Pair    | 0.014295   | 0.015403   | 0.01686    |   0.4 |  0.52
Neigh   | 0.02309    | 0.023884   | 0.026066   |   0.4 |  0.80
Comm    | 1.1356     | 1.3234     | 1.5391     |   8.9 | 44.56
Output  | 0.072798   | 0.072955   | 0.074031   |   0.1 |  2.46
Modify  | 0.51708    | 0.86056    | 1.0897     |  15.8 | 28.98
Other   |            | 0.6738     |            |       | 22.69

Nlocal:           6.25 ave           8 max           3 min
Histogram: 1 0 3 0 9 0 24 0 20 7
Nghost:        14.3906 ave          19 max          11 min
Histogram: 1 6 10 22 0 12 5 5 2 1
Neighs:         7.5625 ave          13 max           2 min
Histogram: 4 4 4 11 12 8 7 3 4 7

Total # of neighbors = 484
Ave neighs/atom = 1.21
Neighbor list builds = 24683
Dangerous builds = 0
Total wall time: 0:00:04
LAMMPS (15 Sep 2022)
OMP_NUM_THREADS environment is not set. Defaulting to 1 thread. (src/comm.cpp:98)
  using 1 OpenMP thread(s) per MPI task
Lattice spacing in x,y,z = 1.1952286 1.1952286 1.1952286
Created orthogonal box = (0 0 -0.5976143) to (23.904572 23.904572 0.5976143)
  8 by 8 by 1 MPI processor grid
Created 400 atoms
  using lattice units in orthogonal box = (0 0 -0.5976143) to (23.904572 23.904572 0.5976143)
  create_atoms CPU = 0.002 seconds
Generated 0 of 0 mixed pair_coeff terms from geometric mixing rule
Neighbor list info ...
  update: every = 1 steps, delay = 0 steps, check = yes
  max neighbors/atom: 2000, page size: 100000
  master list distance cutoff = 1.3
  ghost atom cutoff = 1.3
  binsize = 0.65, bins = 37 37 2
  1 neighbor lists, perpetual/occasional/extra = 1 0 0
  (1) pair lj/cut, perpetual
      attributes: half, newton on
      pair build: half/bin/atomonly/newton
      stencil: half/bin/2d
      bin: standard
Setting up Verlet run ...
  Unit style    : lj
  Current step  : 0
  Time step     : 0.01
Per MPI rank memory allocation (min/avg/max) = 3.047 | 3.047 | 3.047 Mbytes
   Step          Temp          E_pair         E_mol          TotEng         Press     
         0   3              0              0              2.9925         2.09475      
       500   2.9120385      0.35894064     0              3.263699       7.091868     
      1000   2.8779473      0.50831397     0              3.3790664      8.113774     
      1500   2.8613346      0.48010779     0              3.3342891      8.3254592    
      2000   3.0384575      0.38699416     0              3.4178556      7.5762472    
      2500   2.8978155      0.45397406     0              3.344545       8.0647219    
      3000   2.8025898      0.45020212     0              3.2457854      8.045698     
      3500   2.7285667      0.34595656     0              3.0677018      6.6675972    
      4000   2.7480617      0.47800391     0              3.2191954      8.312832     
      4500   2.8957311      0.41504152     0              3.3035333      7.5586609    
      5000   2.9109306      0.45406518     0              3.3577185      8.2123826    
      5500   2.7531733      0.45570176     0              3.2019921      8.0327601    
      6000   2.7527012      0.39635807     0              3.1421775      7.454088     
      6500   2.7970478      0.47658496     0              3.2666401      8.076989     
      7000   2.9166826      0.4494275      0              3.3588184      7.8553346    
      7500   2.8071326      0.48338023     0              3.283495       8.6007027    
      8000   2.7934686      0.51342255     0              3.2999075      8.4675983    
      8500   3.0543175      0.51256084     0              3.5592426      8.5901221    
      9000   2.9942957      0.42132886     0              3.4081388      7.7464895    
      9500   3.1037936      0.34969856     0              3.4457327      6.9454773    
     10000   2.9710852      0.40205113     0              3.3657086      7.6547345    
     10500   2.9367677      0.48425228     0              3.4136781      8.065171     
     11000   3.1388601      0.32532855     0              3.4563415      7.0692453    
     11500   3.2086732      0.35744236     0              3.5580939      7.3484702    
     12000   3.0691746      0.5587705      0              3.6202722      8.6678739    
     12500   3.1461613      0.54752545     0              3.6858213      9.3358211    
     13000   3.1295763      0.45630199     0              3.5780544      8.3089838    
     13500   2.8907481      0.46867476     0              3.352196       7.9746426    
     14000   2.736344       0.56279557     0              3.2922987      8.8778087    
     14500   2.9786744      0.41824609     0              3.3894738      7.9043421    
     15000   2.8597228      0.37279464     0              3.2253682      7.1550387    
     15500   3.0002755      0.43013451     0              3.4229093      7.8605243    
     16000   2.9972303      0.41360047     0              3.4033377      7.8416233    
     16500   3.0185896      0.45420216     0              3.4652452      8.2320081    
     17000   3.0906474      0.36741701     0              3.4503378      7.3200958    
     17500   3.0925662      0.52103434     0              3.6058691      8.8833208    
     18000   2.9912695      0.47453955     0              3.4583309      8.3771912    
     18500   3.1276503      0.48191349     0              3.6017447      8.2854859    
     19000   3.0367589      0.44052411     0              3.4696911      7.9953391    
     19500   3.0357575      0.47057299     0              3.4987411      8.5408624    
     20000   2.9383779      0.545101       0              3.4761329      8.6729597    
     20500   2.7466386      0.39019785     0              3.1299698      7.329697     
     21000   2.9118491      0.43810456     0              3.342674       8.0263106    
     21500   2.9134942      0.48699584     0              3.3932063      8.6772049    
     22000   3.145406       0.33628257     0              3.4738251      7.1477635    
     22500   3.1284571      0.44828038     0              3.5689164      8.1749586    
     23000   3.2689122      0.5427588      0              3.8034988      8.5823267    
     23500   3.1051817      0.55458594     0              3.6520047      9.294406     
     24000   2.9818409      0.53996007     0              3.5143463      9.0559801    
     24500   3.0461379      0.45770048     0              3.496223       8.1034687    
     25000   3.0352488      0.4318032      0              3.4594639      7.7635135    
     25500   3.1114295      0.41241766     0              3.5160686      7.6684269    
     26000   3.0016007      0.43101242     0              3.4251091      8.0292       
     26500   3.0844224      0.43887611     0              3.5155874      8.147118     
     27000   3.005305       0.50148099     0              3.4992727      8.6246881    
     27500   3.1658339      0.58495396     0              3.7428733      9.2484707    
     28000   3.0480145      0.49510179     0              3.5354962      8.4917252    
     28500   2.9750896      0.45711106     0              3.424763       8.0964804    
     29000   2.9945503      0.36232432     0              3.3493882      7.1942719    
     29500   2.8261041      0.3939333      0              3.2129722      7.4911326    
     30000   2.7855352      0.31156657     0              3.0901379      6.4273045    
     30500   2.6845478      0.41620452     0              3.0940409      7.8582702    
     31000   2.9156554      0.39938934     0              3.3077556      7.7079463    
     31500   2.8844021      0.42112237     0              3.2983134      7.6785662    
     32000   2.7529408      0.45232863     0              3.1983871      7.7684612    
     32500   2.5535664      0.50910745     0              3.0562899      8.1188399    
     33000   2.8962891      0.37021126     0              3.2592596      7.275189     
     33500   2.9284958      0.43633964     0              3.3575142      7.9947387    
     34000   2.8581661      0.39911355     0              3.2501342      7.5390938    
     34500   2.8507136      0.45745278     0              3.3010396      7.7319918    
     35000   3.0664749      0.44170145     0              3.5005102      7.6870861    
     35500   3.1818539      0.48784821     0              3.6617475      8.7592899    
     36000   3.0015575      0.58541275     0              3.5794663      9.0365084    
     36500   3.0116524      0.56241893     0              3.5665422      9.0574475    
     37000   3.0302193      0.54351939     0              3.5661632      9.1928644    
     37500   3.0714272      0.52374043     0              3.587489       9.0385667    
     38000   2.9838739      0.53681935     0              3.5132336      9.0878683    
     38500   3.2913336      0.34196468     0              3.6250699      7.1704405    
     39000   3.10154        0.41320878     0              3.506995       7.8454133    
     39500   3.1965653      0.4273445      0              3.6159184      8.3129261    
     40000   2.9866009      0.5506615      0              3.5297959      9.3737974    
     40500   3.0726483      0.41616916     0              3.4811358      8.0212354    
     41000   3.29197        0.44586481     0              3.7296049      8.3474327    
     41500   3.1048811      0.43281335     0              3.5299322      7.9625573    
     42000   3.0734481      0.41920018     0              3.4849647      7.9339628    
     42500   3.1704341      0.40650494     0              3.5690129      7.6162974    
     43000   3.2697801      0.45410642     0              3.7157121      8.4187954    
     43500   3.2847514      0.52013095     0              3.7966704      9.160151     
     44000   2.9811794      0.45537383     0              3.4291003      7.7768693    
     44500   2.9789548      0.41438757     0              3.385895       7.9289263    
     45000   2.9887982      0.39362167     0              3.3749478      7.3505337    
     45500   3.0402421      0.30355401     0              3.3361955      6.6545645    
     46000   2.8671735      0.45496023     0              3.3149658      8.1535987    
     46500   2.9059229      0.45330608     0              3.3519642      7.9734916    
     47000   2.9355128      0.39122239     0              3.3193964      7.5298336    
     47500   2.7948595      0.48899033     0              3.2768627      8.1729043    
     48000   2.8948795      0.5277709      0              3.4154132      8.8002709    
     48500   3.0952573      0.34516529     0              3.4326844      7.1863538    
     49000   2.8891461      0.38548206     0              3.2674053      7.4672856    
     49500   3.011061       0.37854526     0              3.3820786      7.3964874    
     50000   3.0990742      0.57008248     0              3.661409       9.1340387    
Loop time of 1.57217 on 64 procs for 50000 steps with 400 atoms

Performance: 27477909.497 tau/day, 31803.136 timesteps/s, 12.721 Matom-step/s
99.4% CPU use with 64 MPI tasks x 1 OpenMP threads

MPI task timing breakdown:
Section |  min time  |  avg time  |  max time  |%varavg| %total
---------------------------------------------------------------
Pair    | 0.0087205  | 0.0094974  | 0.011075   |   0.4 |  0.60
Neigh   | 0.016737   | 0.017388   | 0.019224   |   0.3 |  1.11
Comm    | 0.66619    | 0.76937    | 0.8786     |   6.3 | 48.94
Output  | 0.0036019  | 0.0037575  | 0.0055385  |   0.4 |  0.24
Modify  | 0.27284    | 0.45124    | 0.58401    |  11.8 | 28.70
Other   |            | 0.3209     |            |       | 20.41

Nlocal:           6.25 ave           9 max           4 min
Histogram: 6 0 17 0 11 0 17 0 11 2
Nghost:        15.6719 ave          20 max          11 min
Histogram: 1 1 8 11 11 9 11 5 4 3
Neighs:        10.0938 ave          20 max           2 min
Histogram: 2 8 7 14 5 10 8 5 4 1

Total # of neighbors = 646
Ave neighs/atom = 1.615
Neighbor list builds = 16924
Dangerous builds = 0
Generated 0 of 0 mixed pair_coeff terms from geometric mixing rule
Setting up Verlet run ...
  Unit style    : lj
  Current step  : 50000
  Time step     : 0.01
Per MPI rank memory allocation (min/avg/max) = 3.068 | 3.068 | 3.068 Mbytes
   Step          Temp          E_pair         E_mol          TotEng         Press     
     50000   3.0990742      0.57008248     0              3.661409       9.1340387    
     50500   2.9422561      0.55848278     0              3.4933833      8.8077029    
     51000   3.0051989      0.5024537      0              3.5001396      8.7685967    
     51500   3.0276106      0.61656294     0              3.6366045      9.9515335    
     52000   2.9620421      0.46369919     0              3.4183362      8.1149859    
     52500   3.0322078      0.46173307     0              3.4863603      8.1788507    
     53000   3.1285133      0.47011968     0              3.5908117      8.386667     
     53500   3.0843795      0.52601736     0              3.6026859      8.8429074    
     54000   2.8997452      0.58504972     0              3.4775455      9.1677779    
     54500   2.7102821      0.48544417     0              3.1889506      8.2915642    
     55000   2.6793838      0.43004783     0              3.1027332      7.8640918    
     55500   2.8264352      0.38517297     0              3.2045421      7.4590525    
     56000   2.8504369      0.43311029     0              3.2764211      7.8020903    
     56500   2.7535289      0.55271239     0              3.2993575      8.7255243    
     57000   2.9430903      0.40233556     0              3.3380681      7.4710255    
     57500   2.9995874      0.46589773     0              3.4579862      8.1126521    
     58000   3.018604       0.45687148     0              3.467929       7.9709118    
     58500   2.7267274      0.43864176     0              3.1585523      7.8696853    
     59000   2.7213278      0.35621198     0              3.0707365      7.1768905    
     59500   2.6926726      0.37090758     0              3.0568485      7.0057056    
     60000   2.8082866      0.29500315     0              3.096269       6.5077457    
     60500   2.6796693      0.42448851     0              3.0974586      7.5183969    
     61000   2.3208969      0.41501753     0              2.7301122      7.1764414    
     61500   2.527995       0.33823605     0              2.859911       6.7493797    
     62000   2.5180655      0.40194747     0              2.9137178      7.1011183    
     62500   2.5505638      0.4437817      0              2.9879691      7.8874472    
     63000   2.6407474      0.37890247     0              3.013048       7.3348806    
     63500   2.707921       0.26941453     0              2.9705657      6.1143213    
     64000   2.6170892      0.38162142     0              2.9921679      7.2859978    
     64500   2.5343814      0.41670872     0              2.9447541      7.5688355    
     65000   2.6244069      0.39649709     0              3.0143429      7.3217171    
     65500   2.7906375      0.45527605     0              3.238937       8.1966235    
     66000   2.5226543      0.51099494     0              3.0273427      8.3052732    
     66500   2.6315303      0.44754513     0              3.0724966      7.7717687    
     67000   2.7065557      0.43581238     0              3.1356017      7.9213484    
     67500   2.7416727      0.32413544     0              3.058954       6.6350392    
     68000   2.5490755      0.39402378     0              2.9367266      7.073893     
     68500   2.4636307      0.39423133     0              2.851703       7.3269165    
     69000   2.4139225      0.41047116     0              2.8183588      7.3621901    
     69500   2.1349598      0.35578925     0              2.4854116      6.5283053    
     70000   2.2352408      0.3555015      0              2.5851542      6.8341972    
     70500   2.3409271      0.30319523     0              2.63827        6.1972333    
     71000   2.3029935      0.30290795     0              2.600144       6.1026628    
     71500   2.2639768      0.35041653     0              2.6087333      6.4434573    
     72000   2.2333263      0.31254051     0              2.5402835      6.202711     
     72500   2.3014618      0.31043506     0              2.6061432      6.2276711    
     73000   2.3910385      0.27504752     0              2.6601084      5.8116419    
     73500   2.2279595      0.38566713     0              2.6080567      7.1515435    
     74000   2.4211665      0.36544224     0              2.7805559      6.7415464    
     74500   2.5996316      0.28234104     0              2.8754736      5.84115      
     75000   2.3985795      0.338764       0              2.731347       6.6066465    
     75500   2.3041333      0.31632742     0              2.6147004      6.4380943    
     76000   2.2570458      0.41429633     0              2.6656995      7.3836773    
     76500   2.3304381      0.29805024     0              2.6226622      6.2940506    
     77000   2.3852103      0.30091286     0              2.6801602      6.1972636    
     77500   2.0420579      0.34838494     0              2.3853377      6.2490624    
     78000   2.1564329      0.26731453     0              2.4183563      5.6855811    
     78500   2.2030739      0.3258719      0              2.5234382      6.5049164    
     79000   2.2390824      0.27353699     0              2.5070217      5.7418636    
     79500   2.0560564      0.21590704     0              2.2668233      5.0657655    
     80000   1.9921954      0.26507721     0              2.2522921      5.5469419    
     80500   2.0305768      0.30548738     0              2.3309877      6.1191017    
     81000   2.1329933      0.27981191     0              2.4074727      5.5924756    
     81500   2.0720247      0.248314       0              2.3151586      5.507095     
     82000   2.1004364      0.24396953     0              2.3391548      5.4003006    
     82500   2.1941736      0.29464227     0              2.4833305      6.0387352    
     83000   2.0437531      0.26816046     0              2.3068041      5.567623     
     83500   2.0931192      0.26474558     0              2.352632       5.4417421    
     84000   2.0756131      0.2748387      0              2.3452628      5.6132279    
     84500   2.0578038      0.29095648     0              2.3436158      5.6225104    
     85000   2.1711432      0.30787506     0              2.4735904      6.0709374    
     85500   2.125433       0.26399325     0              2.3841127      5.5425358    
     86000   2.0472721      0.26101911     0              2.3031731      5.3147074    
     86500   2.0350199      0.26501275     0              2.2949451      5.3878335    
     87000   1.9850527      0.30423608     0              2.2843262      5.8928861    
     87500   2.0596129      0.28122226     0              2.3356861      6.0779735    
     88000   1.8429352      0.24118959     0              2.0795174      5.2568045    
     88500   1.8749274      0.23364367     0              2.1038838      5.0090816    
     89000   1.9209836      0.23027863     0              2.1464597      4.9464741    
     89500   1.874045       0.20587741     0              2.0752373      4.7192171    
     90000   1.841502       0.20941608     0              2.0463143      4.8651782    
     90500   1.6800576      0.24524768     0              1.9211051      5.0887209    
     91000   1.8120632      0.24551114     0              2.0530441      5.0709097    
     91500   1.8422751      0.26129859     0              2.098968       5.2446605    
     92000   1.7767663      0.27765073     0              2.0499751      5.1026527    
     92500   1.798302       0.24610816     0              2.0399144      5.0871414    
     93000   1.724566       0.25670333     0              1.976958       5.0541781    
     93500   1.7711569      0.24940322     0              2.0161322      5.0747308    
     94000   1.7509918      0.20536985     0              1.9519842      4.6084016    
     94500   1.6309049      0.24234028     0              1.8691679      4.8669572    
     95000   1.7127212      0.20112741     0              1.9095669      4.4923832    
     95500   1.5892184      0.21118235     0              1.7964277      4.5438611    
     96000   1.616867       0.24190757     0              1.8547324      4.8420824    
     96500   1.6860733      0.2082388      0              1.8900969      4.5077695    
     97000   1.7975432      0.26697103     0              2.0600204      5.2373148    
     97500   1.7388592      0.23878992     0              1.973302       5.0656205    
     98000   1.6918964      0.25056724     0              1.9382339      5.0588179    
[...]
     55500   2.7659321      1.9374803      0              4.6964975      42.236195    
     56000   2.7211963      1.7964385      0              4.5108319      39.695049    
     56500   2.8588118      1.9523544      0              4.8040192      42.109591    
     57000   2.5194555      1.8956036      0              4.4087605      41.779279    
     57500   2.7370758      1.934124       0              4.6643572      41.741655    
     58000   2.6551608      1.8121357      0              4.4606586      40.339549    
     58500   2.5989647      1.7571964      0              4.3496636      39.706486    
     59000   2.570558       1.9519185      0              4.5160501      41.293318    
     59500   3.024489       1.8087072      0              4.825635       41.184172    
     60000   2.9197109      1.9355602      0              4.8479718      42.247226    
     60500   2.8362149      1.8845003      0              4.7136247      42.285996    
     61000   2.7832961      1.9665523      0              4.7428902      42.748573    
     61500   2.7553345      1.8262324      0              4.5746786      40.381301    
     62000   2.6681203      1.8950059      0              4.5564559      40.755534    
     62500   2.6954635      1.8357572      0              4.524482       40.736484    
     63000   2.5740764      1.8912666      0              4.4589078      41.988947    
     63500   2.6172019      1.7065242      0              4.3171831      39.277239    
     64000   2.5856344      1.7093514      0              4.2885217      38.444152    
     64500   2.3891194      1.8226875      0              4.2058341      40.122541    
     65000   2.5005234      1.6820534      0              4.1763254      38.468729    
     65500   2.4969049      1.6913746      0              4.1820373      38.131891    
     66000   2.392943       1.9164583      0              4.3034189      42.253883    
     66500   2.6682633      1.8777664      0              4.539359       41.741405    
     67000   2.8669645      1.7342493      0              4.5940463      39.387357    
     67500   2.7210335      1.6236344      0              4.3378653      37.679556    
     68000   2.4288905      1.8760929      0              4.2989111      42.081066    
     68500   2.5011922      1.7108799      0              4.2058192      39.191375    
     69000   2.5665187      1.6173031      0              4.1774055      37.283107    
     69500   2.5429138      1.6529127      0              4.1894692      37.36675     
     70000   2.6055292      1.5344092      0              4.1334246      36.179688    
     70500   2.4414224      1.643508       0              4.0788268      38.01447     
     71000   2.3416911      1.6245324      0              3.9603692      36.929576    
     71500   2.3885697      1.4594222      0              3.8420205      35.305164    
     72000   2.2084707      1.5238054      0              3.7267548      34.993145    
     72500   2.4089982      1.5056721      0              3.9086477      35.702733    
     73000   2.3998554      1.6942253      0              4.088081       38.639246    
     73500   2.4304029      1.501882       0              3.9262088      35.937127    
     74000   2.3614828      1.5570808      0              3.9126599      36.900471    
     74500   2.3474675      1.4315478      0              3.7731466      34.981025    
     75000   2.2217666      1.3664617      0              3.5826739      33.43528     
     75500   2.2262535      1.4567682      0              3.677456       34.872202    
     76000   2.1125721      1.3791217      0              3.4864124      33.49631     
     76500   2.107059       1.5252384      0              3.6270298      35.615014    
     77000   2.2854064      1.5149632      0              3.7946561      36.007755    
     77500   2.1547927      1.7168028      0              3.8662086      38.490055    
     78000   2.5451445      1.5573172      0              4.0960989      36.356103    
     78500   2.2688953      1.3257664      0              3.5889894      32.858941    
     79000   2.1715813      1.4136147      0              3.5797671      34.349804    
     79500   2.0959761      1.579532       0              3.6702681      36.40664     
     80000   2.3246039      1.6356318      0              3.9544242      37.909688    
     80500   2.182385       1.3198859      0              3.496815       31.981324    
     81000   1.9954494      1.501708       0              3.4921687      35.681991    
     81500   1.9565061      1.3738776      0              3.3254924      33.377272    
     82000   2.1123352      1.3289104      0              3.4359647      32.490235    
     82500   2.037908       1.5511177      0              3.5839309      36.063521    
     83000   2.1032292      1.4731131      0              3.5710843      34.445428    
     83500   2.0743703      1.5226568      0              3.5918411      35.816738    
     84000   1.8813836      1.3760294      0              3.2527095      33.020659    
     84500   1.9808706      1.2322126      0              3.2081311      31.175396    
     85000   1.9031686      1.3230106      0              3.2214213      32.216939    
     85500   1.9275543      1.2238015      0              3.1465368      30.687007    
     86000   1.7789992      1.3449853      0              3.1195369      32.038584    
     86500   1.9713232      1.3085029      0              3.2748978      32.91104     
     87000   1.8400955      1.1795425      0              3.0150378      30.313661    
     87500   1.8052766      1.328706       0              3.1294693      32.0618      
     88000   1.7715808      1.2225242      0              2.9896761      30.625616    
     88500   1.8445328      1.3142588      0              3.1541802      32.571943    
     89000   1.7718222      1.1816544      0              2.9490471      30.129808    
     89500   1.761448       1.2798242      0              3.0368686      32.066139    
     90000   1.7102245      1.2001646      0              2.9061136      30.355829    
     90500   1.8197645      1.1874119      0              3.002627       30.586552    
     91000   1.7979698      1.146658       0              2.9401329      29.760347    
     91500   1.6248969      1.2455196      0              2.8663543      31.48553     
     92000   1.5743586      1.2058269      0              2.7762496      30.845999    
     92500   1.731921       1.095347       0              2.8229383      28.475543    
     93000   1.7361795      1.1206532      0              2.8524923      28.842262    
     93500   1.6747718      1.2395357      0              2.9101205      30.723319    
     94000   1.7726581      1.0592152      0              2.8274417      28.293462    
     94500   1.7468524      0.9867952      0              2.7292805      26.729817    
     95000   1.5003211      1.1808045      0              2.6773749      29.874692    
     95500   1.5873005      1.0475267      0              2.6308589      27.742171    
     96000   1.6171835      1.0017273      0              2.6148679      27.356936    
     96500   1.6465204      1.0925093      0              2.7349135      28.887459    
     97000   1.6979616      1.0875848      0              2.7813014      28.167585    
     97500   1.761984       1.1172822      0              2.8748612      29.229885    
     98000   1.545621       1.1467051      0              2.6884621      29.468122    
     98500   1.7250291      1.04815        0              2.7688665      28.051734    
     99000   1.5511607      1.1828725      0              2.7301553      29.18324     
     99500   1.6505331      1.0325544      0              2.6789611      27.901276    
    100000   1.5023438      1.1351156      0              2.6337035      29.119918    
    100500   1.5258176      0.96196555     0              2.4839686      26.057237    
    101000   1.4697266      0.93959222     0              2.4056446      25.414593    
    101500   1.3912781      0.92058396     0              2.3083839      25.879968    
    102000   1.390741       1.0413688      0              2.4286329      27.435728    
    102500   1.4922615      1.0177865      0              2.5063174      27.081359    
    103000   1.5618655      0.99298067     0              2.5509415      26.282824    
    103500   1.6446738      0.99552641     0              2.6360885      27.401122    
    104000   1.4569525      0.9594551      0              2.4127652      26.60391     
    104500   1.3307694      1.0251189      0              2.3525614      26.944378    
    105000   1.3736944      1.0039449      0              2.3742051      26.971303    
    105500   1.495216       0.80642254     0              2.2979005      23.882596    
    106000   1.307722       0.94926182     0              2.2537146      25.975402    
    106500   1.3485599      0.97904644     0              2.324235       25.86923     
    107000   1.3620291      1.010889       0              2.369513       27.449727    
    107500   1.4854735      0.93357127     0              2.4153311      25.756335    
    108000   1.2716446      0.91776805     0              2.1862335      25.181614    
    108500   1.3136281      0.74133555     0              2.0516796      22.656171    
    109000   1.3426763      0.76959941     0              2.108919       23.023055    
    109500   1.2677454      0.802597       0              2.067173       23.487624    
    110000   1.2987631      0.80406221     0              2.0995784      22.994984    
    110500   1.3152698      0.86986789     0              2.1818495      24.103851    
    111000   1.2430907      0.91593521     0              2.1559181      25.146599    
    111500   1.3197819      0.76493186     0              2.0814143      23.298414    
    112000   1.2409636      0.8177123      0              2.0555735      23.232307    
    112500   1.1526384      0.84725044     0              1.9970073      24.256617    
    113000   1.2059315      0.71713625     0              1.9200529      21.829677    
    113500   1.1377987      0.69369864     0              1.8286528      21.296417    
    114000   1.1258405      0.62146916     0              1.744495       19.718972    
    114500   1.1381029      0.66845731     0              1.803715       20.245699    
    115000   1.0597861      0.76998154     0              1.8271182      22.67088     
    115500   1.1154289      0.75388805     0              1.8665284      22.228464    
    116000   1.1091262      0.71498439     0              1.8213378      22.02565     
    116500   1.1279775      0.74129013     0              1.8664477      21.833839    
    117000   1.0810551      0.67577961     0              1.7541321      20.764008    
    117500   0.95198763     0.70911796     0              1.6587256      21.718228    
    118000   1.045632       0.6510221      0              1.69404        20.384072    
    118500   1.0241769      0.62969305     0              1.6513095      19.613734    
    119000   0.9746455      0.71306393     0              1.6852728      20.971708    
    119500   1.1242211      0.60137131     0              1.7227819      18.923269    
    120000   1.1125558      0.60085971     0              1.7106341      19.124401    
    120500   1.0158007      0.63468365     0              1.6479449      19.892378    
    121000   1.004659       0.59207757     0              1.594225       18.827741    
    121500   0.96443185     0.60344249     0              1.5654633      18.745894    
    122000   0.9182471      0.59036352     0              1.506315       19.13253     
    122500   0.92509114     0.54161766     0              1.4643961      17.727818    
    123000   0.83263462     0.59041741     0              1.4209704      18.691345    
    123500   0.89131864     0.53828311     0              1.4273735      17.70238     
    124000   0.8188118      0.58315935     0              1.3999241      18.911805    
    124500   0.837073       0.54102834     0              1.3760087      17.820467    
    125000   0.81541582     0.5396666      0              1.3530439      17.788124    
    125500   0.7805485      0.51254935     0              1.2911465      17.051169    
    126000   0.7679842      0.52018707     0              1.2862513      17.404868    
    126500   0.71533505     0.55036925     0              1.263916       17.965557    
    127000   0.73505402     0.46968684     0              1.2029032      16.322929    
    127500   0.79688729     0.43418731     0              1.2290824      15.893908    
    128000   0.65889479     0.49599778     0              1.1532453      16.97892     
    128500   0.74138789     0.45026563     0              1.1898         15.544848    
    129000   0.69834148     0.42995293     0              1.1265486      15.463985    
    129500   0.66378        0.45672864     0              1.1188492      15.859354    
    130000   0.65212986     0.42688689     0              1.0773864      15.395149    
    130500   0.70022615     0.3824418      0              1.0809174      14.914305    
    131000   0.70859235     0.41522976     0              1.1220506      15.062287    
    131500   0.69159975     0.38270005     0              1.0725708      14.009653    
    132000   0.67184759     0.39035183     0              1.0605198      14.495204    
    132500   0.60114789     0.39525616     0              0.99490118     14.639077    
    133000   0.59117367     0.42229205     0              1.0119878      15.21518     
    133500   0.624707       0.34378345     0              0.96692868     13.374372    
    134000   0.5501789      0.37700788     0              0.92581133     13.970988    
    134500   0.52327499     0.37461286     0              0.89657966     13.824828    
    135000   0.52499325     0.34046057     0              0.86414134     13.034198    
    135500   0.48915751     0.35047184     0              0.83840645     13.193662    
    136000   0.49081619     0.32666831     0              0.81625746     13.072265    
    136500   0.47481413     0.30988408     0              0.78351117     12.593488    
    137000   0.4475886      0.30318842     0              0.74965806     12.434314    
    137500   0.46641857     0.26765194     0              0.73290446     11.311626    
    138000   0.4454464      0.25660609     0              0.70093887     11.105051    
    138500   0.41675333     0.28256186     0              0.69827331     11.531727    
    139000   0.41793486     0.25442131     0              0.67131133     11.132813    
    139500   0.38293882     0.25231118     0              0.63429266     10.954597    
    140000   0.38943074     0.22939274     0              0.6178499      10.478956    
    140500   0.35232902     0.22952223     0              0.58097043     10.351022    
    141000   0.37632252     0.20159779     0              0.5769795      9.7096503    
    141500   0.37523265     0.2011315      0              0.57542607     9.5283719    
    142000   0.37178379     0.23137411     0              0.60222844     10.579777    
    142500   0.33868583     0.1773713      0              0.51521042     8.8802658    
    143000   0.29472625     0.19327712     0              0.48726656     9.0942373    
    143500   0.28959718     0.15778664     0              0.44665982     8.0208744    
    144000   0.27726001     0.1572658      0              0.43383265     7.9705125    
    144500   0.26347735     0.14539732     0              0.40821598     7.6980242    
    145000   0.22913909     0.15682211     0              0.38538836     7.9612567    
    145500   0.24978018     0.13142949     0              0.38058522     7.1967043    
    146000   0.22567265     0.1225697      0              0.34767817     6.8901736    
    146500   0.20668431     0.12246081     0              0.32862842     6.8590096    
    147000   0.18136712     0.10613457     0              0.28704827     6.4397452    
    147500   0.17546051     0.093385395    0              0.26840725     5.9737059    
    148000   0.14543667     0.092803634    0              0.23787672     5.900597     
    148500   0.14301908     0.082128341    0              0.22478987     5.523863     
    149000   0.12027738     0.076830623    0              0.19680731     5.1033873    
    149500   0.12241915     0.059553984    0              0.18166708     4.4537335    
    150000   0.096199743    0.050493125    0              0.14645237     3.9000736    
Loop time of 2.91833 on 64 procs for 100000 steps with 400 atoms

Performance: 29606006.970 tau/day, 34266.212 timesteps/s, 13.706 Matom-step/s
99.5% CPU use with 64 MPI tasks x 1 OpenMP threads

MPI task timing breakdown:
Section |  min time  |  avg time  |  max time  |%varavg| %total
---------------------------------------------------------------
Pair    | 0.02794    | 0.031535   | 0.038452   |   1.0 |  1.08
Neigh   | 0.023181   | 0.025213   | 0.027398   |   0.6 |  0.86
Comm    | 1.1209     | 1.3255     | 1.5508     |   9.7 | 45.42
Output  | 0.061439   | 0.061617   | 0.062756   |   0.1 |  2.11
Modify  | 0.46019    | 0.82858    | 1.0805     |  17.4 | 28.39
Other   |            | 0.6458     |            |       | 22.13

Nlocal:           6.25 ave           8 max           4 min
Histogram: 1 0 12 0 0 23 0 26 0 2
Nghost:        21.0469 ave          25 max          18 min
Histogram: 3 13 13 0 7 11 0 12 4 1
Neighs:          18.75 ave          24 max          12 min
Histogram: 1 1 8 3 3 20 8 13 5 2

Total # of neighbors = 1200
Ave neighs/atom = 3
Neighbor list builds = 23205
Dangerous builds = 0
Total wall time: 0:00:04
LAMMPS (15 Sep 2022)
OMP_NUM_THREADS environment is not set. Defaulting to 1 thread. (src/comm.cpp:98)
  using 1 OpenMP thread(s) per MPI task
Lattice spacing in x,y,z = 1 1 1
Created orthogonal box = (0 0 0) to (8 8 8)
  8 by 8 by 1 MPI processor grid
Created 512 atoms
  using lattice units in orthogonal box = (0 0 0) to (8 8 8)
  create_atoms CPU = 0.001 seconds
Generated 0 of 0 mixed pair_coeff terms from geometric mixing rule
Neighbor list info ...
  update: every = 1 steps, delay = 0 steps, check = yes
  max neighbors/atom: 2000, page size: 100000
  master list distance cutoff = 1.3
  ghost atom cutoff = 1.3
  binsize = 0.65, bins = 13 13 13
  1 neighbor lists, perpetual/occasional/extra = 1 0 0
  (1) pair lj/cut, perpetual
      attributes: half, newton on
      pair build: half/bin/atomonly/newton
      stencil: half/bin/2d
      bin: standard
Setting up Verlet run ...
  Unit style    : lj
  Current step  : 0
  Time step     : 0.01
Per MPI rank memory allocation (min/avg/max) = 2.938 | 2.938 | 2.938 Mbytes
   Step          Temp          E_pair         E_mol          TotEng         Press     
         0   3              0              0              2.9941406      23.953125    
       500   3.1433289      1.7268576      0              4.8640471      264.07061    
      1000   3.2300187      1.6605321      0              4.8842422      260.76675    
      1500   3.1995851      1.785124       0              4.9784599      265.13613    
      2000   3.1549942      1.5407932      0              4.6896253      243.54209    
ERROR: Lost atoms: original 512 current 510 (src/thermo.cpp:481)
Last command: run ${equil_steps}
--------------------------------------------------------------------------
Primary job  terminated normally, but 1 process returned
a non-zero exit code. Per user-direction, the job has been aborted.
--------------------------------------------------------------------------
--------------------------------------------------------------------------
mpirun detected that one or more processes exited with non-zero status, thus causing
the job to be terminated. The first process to do so was:

  Process name: [[21218,1],35]
  Exit code:    1
--------------------------------------------------------------------------
