LAMMPS (15 Sep 2022)
OMP_NUM_THREADS environment is not set. Defaulting to 1 thread. (src/comm.cpp:98)
  using 1 OpenMP thread(s) per MPI task
Lattice spacing in x,y,z = 1.4142136 1.4142136 1.4142136
Created orthogonal box = (0 0 -0.70710678) to (28.284271 28.284271 0.70710678)
  2 by 2 by 1 MPI processor grid
Created 400 atoms
  using lattice units in orthogonal box = (0 0 -0.70710678) to (28.284271 28.284271 0.70710678)
  create_atoms CPU = 0.000 seconds
Generated 0 of 0 mixed pair_coeff terms from geometric mixing rule
Neighbor list info ...
  update: every = 1 steps, delay = 0 steps, check = yes
  max neighbors/atom: 2000, page size: 100000
  master list distance cutoff = 1.3
  ghost atom cutoff = 1.3
  binsize = 0.65, bins = 44 44 3
  1 neighbor lists, perpetual/occasional/extra = 1 0 0
  (1) pair lj/cut, perpetual
      attributes: half, newton on
      pair build: half/bin/atomonly/newton
      stencil: half/bin/2d
      bin: standard
Setting up Verlet run ...
  Unit style    : lj
  Current step  : 0
  Time step     : 0.01
Per MPI rank memory allocation (min/avg/max) = 3.05 | 3.05 | 3.05 Mbytes
   Step          Temp          E_pair         E_mol          TotEng         Press     
         0   3              0              0              2.9925         1.49625      
       500   2.9895024      0.17913003     0              3.1611587      3.2407082    
      1000   2.8983674      0.23548846     0              3.1266099      3.6151453    
      1500   3.0494639      0.17207009     0              3.2139104      3.2839518    
      2000   2.9813318      0.22331763     0              3.1971961      3.6101586    
      2500   2.9755932      0.19215349     0              3.1603077      3.3422291    
      3000   2.7180615      0.27891336     0              2.9901797      3.8834034    
      3500   2.5923119      0.2517361      0              2.8375673      3.5683408    
      4000   2.9644646      0.11826091     0              3.0753144      2.8521529    
      4500   2.9917583      0.18436332     0              3.1686422      3.3808379    
      5000   3.0174139      0.23489235     0              3.2447628      3.7188056    
      5500   2.9870115      0.23290737     0              3.2124513      3.6819671    
      6000   3.294642       0.27310654     0              3.559512       4.1451505    
      6500   3.3461234      0.19403527     0              3.5317934      3.3337199    
      7000   3.1336555      0.25949972     0              3.3853211      3.9318295    
      7500   3.0178668      0.21574284     0              3.226065       3.6639535    
      8000   3.0957752      0.204989       0              3.2930248      3.4879596    
      8500   3.0979906      0.16978292     0              3.2600285      3.3799896    
      9000   3.0283606      0.26692704     0              3.2877167      3.9839748    
      9500   2.9142455      0.19634143     0              3.1033013      3.4460969    
     10000   2.7298252      0.24108111     0              2.9640817      3.772125     
     10500   2.9648849      0.11997342     0              3.0774461      2.984114     
     11000   3.0409249      0.14797449     0              3.181297       3.16565      
     11500   3.1292534      0.20132591     0              3.3227562      3.6047374    
     12000   3.3859751      0.21446689     0              3.5919771      3.9224347    
     12500   3.2265282      0.25186894     0              3.4703308      3.9958225    
     13000   3.0688887      0.24074003     0              3.3019565      3.9223365    
     13500   3.2116853      0.18151294     0              3.385169       3.4822626    
     14000   3.2124364      0.22785412     0              3.4322594      3.7398669    
     14500   3.1881925      0.242613       0              3.422835       3.9397986    
     15000   3.1170597      0.19138121     0              3.3006483      3.5189659    
     15500   2.8413948      0.27799624     0              3.1122876      3.8311704    
     16000   2.8765858      0.23887099     0              3.1082653      3.6776979    
     16500   2.9268887      0.13380339     0              3.0533749      2.9496642    
     17000   2.9117325      0.22187754     0              3.1263307      3.7239369    
     17500   2.8377243      0.2795279      0              3.1101578      4.0655852    
     18000   2.935305       0.21711032     0              3.145077       3.5749871    
     18500   2.7056698      0.1851891      0              2.8840948      3.1930387    
     19000   2.9467432      0.18000563     0              3.1193819      3.3302505    
     19500   3.0153437      0.24330783     0              3.2511131      3.7127349    
     20000   3.2165279      0.15266889     0              3.3611555      3.3144711    
     20500   2.9822892      0.27488153     0              3.2497151      3.962278     
     21000   2.8086563      0.14454506     0              2.9461797      2.9009297    
     21500   2.7478506      0.19246748     0              2.9334485      3.3132557    
     22000   2.8324998      0.20552789     0              3.0309464      3.3095799    
     22500   2.8997796      0.23901721     0              3.1315474      3.7027194    
     23000   2.8519887      0.1566652      0              3.0015239      3.0953712    
     23500   2.5785293      0.17143662     0              2.7435196      2.9401679    
     24000   2.9301163      0.16374013     0              3.0865311      3.2321098    
     24500   3.0017225      0.17212879     0              3.166347       3.2001204    
     25000   2.9661289      0.22922981     0              3.1879434      3.5557213    
     25500   3.0323185      0.24576945     0              3.2705071      3.7138236    
     26000   3.0297073      0.19896672     0              3.2210998      3.5021061    
     26500   3.0401001      0.2145557      0              3.2470555      3.6774926    
     27000   3.3365691      0.21761673     0              3.5458444      3.756113     
     27500   3.2397925      0.2784366      0              3.5101296      4.1224927    
     28000   3.1688856      0.2104074      0              3.3713707      3.6577341    
     28500   3.0059354      0.21611383     0              3.2145344      3.5980233    
     29000   2.9878428      0.14985037     0              3.1302236      3.1529494    
     29500   2.9681823      0.23296254     0              3.1937244      3.6773751    
     30000   2.8212958      0.22641184     0              3.0406544      3.6406378    
     30500   2.6820957      0.20040847     0              2.8757989      3.3835195    
     31000   2.7844608      0.13883941     0              2.916339       2.8651596    
     31500   3.0044572      0.22070055     0              3.2176466      3.8087646    
     32000   3.1566339      0.24046154     0              3.3892038      3.9271177    
     32500   3.1009669      0.25305909     0              3.3462735      3.9611581    
     33000   3.2472147      0.22916346     0              3.4682601      3.7770836    
     33500   2.9132357      0.24649899     0              3.1524516      3.844748     
     34000   2.86579        0.28086005     0              3.1394856      4.1022162    
     34500   2.8688617      0.17757304     0              3.0392626      3.1433156    
     35000   2.8305398      0.17761897     0              3.0010824      3.2103232    
     35500   2.9950481      0.15662814     0              3.1441886      3.0648504    
     36000   3.1688942      0.20849875     0              3.3694708      3.804879     
     36500   3.2301212      0.15556254     0              3.3776084      3.1758517    
     37000   3.0154168      0.22799378     0              3.235872       3.588891     
     37500   3.0589839      0.25339337     0              3.3047298      3.9852823    
     38000   3.052842       0.18705195     0              3.2322618      3.3320084    
     38500   2.9097169      0.22354198     0              3.1259845      3.6150947    
     39000   2.7379399      0.19089717     0              2.9219922      3.2791895    
     39500   2.9589501      0.1348488      0              3.0864015      2.9775429    
     40000   2.9613295      0.20498058     0              3.1589068      3.6281647    
     40500   2.9687541      0.30868279     0              3.270015       4.2956951    
     41000   3.2178233      0.24007155     0              3.4498503      3.8703048    
     41500   3.3485406      0.20601166     0              3.5461809      3.8282385    
     42000   3.1988723      0.23513175     0              3.4260068      3.8540913    
     42500   3.0382764      0.26132306     0              3.2920038      4.0451166    
     43000   3.1344438      0.25850739     0              3.3851151      3.9448177    
     43500   3.1903947      0.22914456     0              3.4115633      3.7990339    
     44000   2.9482198      0.19470824     0              3.1355575      3.4261473    
     44500   2.9285451      0.21133986     0              3.1325636      3.5191605    
     45000   2.8935924      0.14583224     0              3.0321906      2.9847162    
     45500   2.8947514      0.15920814     0              3.0467227      3.2018961    
     46000   2.9783996      0.23699582     0              3.2079494      3.7115906    
     46500   3.0076855      0.24917407     0              3.2493403      3.8630466    
     47000   3.183096       0.18427312     0              3.3594114      3.5715037    
     47500   3.266547       0.20523191     0              3.4636126      3.6467355    
     48000   3.2952715      0.25722723     0              3.5442605      3.9844299    
     48500   2.9727897      0.31393784     0              3.2792955      4.1639903    
     49000   2.9814982      0.19669192     0              3.1707364      3.4441986    
     49500   2.9767599      0.20714179     0              3.1764597      3.5510237    
     50000   2.7922851      0.34319642     0              3.1285008      4.2635963    
Loop time of 0.959365 on 4 procs for 50000 steps with 400 atoms

Performance: 45029778.568 tau/day, 52117.799 timesteps/s, 20.847 Matom-step/s
99.5% CPU use with 4 MPI tasks x 1 OpenMP threads

MPI task timing breakdown:
Section |  min time  |  avg time  |  max time  |%varavg| %total
---------------------------------------------------------------
Pair    | 0.064885   | 0.067719   | 0.073611   |   1.3 |  7.06
Neigh   | 0.15945    | 0.16101    | 0.16291    |   0.3 | 16.78
Comm    | 0.48517    | 0.49046    | 0.49436    |   0.5 | 51.12
Output  | 0.0010666  | 0.001458   | 0.0026017  |   1.7 |  0.15
Modify  | 0.14036    | 0.14106    | 0.14186    |   0.2 | 14.70
Other   |            | 0.09765    |            |       | 10.18

Nlocal:            100 ave         103 max          98 min
Histogram: 2 0 0 0 0 0 1 0 0 1
Nghost:          36.25 ave          39 max          32 min
Histogram: 1 0 0 0 1 0 0 0 0 2
Neighs:             97 ave         109 max          87 min
Histogram: 1 0 0 1 1 0 0 0 0 1

Total # of neighbors = 388
Ave neighs/atom = 0.97
Neighbor list builds = 16916
Dangerous builds = 0
Generated 0 of 0 mixed pair_coeff terms from geometric mixing rule
Setting up Verlet run ...
  Unit style    : lj
  Current step  : 50000
  Time step     : 0.01
Per MPI rank memory allocation (min/avg/max) = 3.077 | 3.077 | 3.078 Mbytes
   Step          Temp          E_pair         E_mol          TotEng         Press     
     50000   2.7922851      0.34319642     0              3.1285008      4.2635963    
     50500   2.9338301      0.11720584     0              3.0437014      2.7730794    
     51000   2.8815482      0.20626876     0              3.0806131      3.408551     
     51500   2.85374        0.23110323     0              3.0777089      3.5585542    
     52000   3.1714363      0.26762104     0              3.4311287      3.8986691    
     52500   3.0175262      0.17671846     0              3.1867009      3.403433     
     53000   3.0685934      0.15536817     0              3.21629        3.1787111    
     53500   2.9809835      0.2075616      0              3.1810926      3.369703     
     54000   2.8714553      0.33016464     0              3.1944413      4.4199778    
     54500   2.818155       0.22780511     0              3.0389147      3.533366     
     55000   2.8573312      0.17751438     0              3.0277023      3.3499046    
     55500   2.7644675      0.23802597     0              2.9955823      3.7372323    
     56000   2.7697459      0.15043811     0              2.9132596      2.9795317    
     56500   2.5539655      0.20202432     0              2.7496049      3.3431872    
     57000   2.7567983      0.18516124     0              2.9350675      3.2765976    
     57500   2.7698641      0.23203852     0              2.994978       3.5821777    
     58000   2.9234002      0.17329249     0              3.0893842      3.1551314    
     58500   2.9501311      0.22482877     0              3.1675845      3.5484335    
     59000   2.8055473      0.21493773     0              3.0134711      3.5110465    
     59500   2.7090179      0.17542253     0              2.8776679      3.0351516    
     60000   2.6333981      0.11717695     0              2.7439915      2.5436498    
     60500   2.6723548      0.16223726     0              2.8279112      3.0630342    
     61000   2.6185946      0.13850805     0              2.7505561      2.8133534    
     61500   2.4086135      0.20092651     0              2.6035185      3.2081652    
     62000   2.3915601      0.18609448     0              2.5716757      3.005367     
     62500   2.7844819      0.12665977     0              2.9041804      2.7971176    
     63000   2.7247769      0.2248396      0              2.9428046      3.453442     
     63500   2.6733354      0.13978057     0              2.8064327      2.9193664    
     64000   2.81794        0.16428572     0              2.9751809      3.111799     
     64500   2.6303728      0.15781731     0              2.7816142      3.0509218    
     65000   2.6837387      0.10410039     0              2.7811297      2.5294833    
     65500   2.6148471      0.18390792     0              2.7922179      3.111352     
     66000   2.4567828      0.15590625     0              2.6065471      2.7173545    
     66500   2.357062       0.21276729     0              2.5639366      3.3368063    
     67000   2.4614234      0.1414045      0              2.5966744      2.8285668    
     67500   2.485926       0.19707544     0              2.6767867      3.1915846    
     68000   2.3397456      0.17147265     0              2.5053689      3.03133      
     68500   2.6043233      0.21965825     0              2.8174707      3.3832686    
     69000   2.4665813      0.18817952     0              2.6485944      3.1975697    
     69500   2.5220186      0.16899693     0              2.6847105      2.9334989    
     70000   2.6370583      0.10319897     0              2.7336646      2.5706621    
     70500   2.5608352      0.1682006      0              2.7226337      2.9170213    
     71000   2.3723157      0.19311088     0              2.5594958      2.9756431    
     71500   2.3384787      0.11596206     0              2.4485946      2.4425302    
     72000   2.2405759      0.14992254     0              2.384897       2.6875029    
     72500   2.2637174      0.1417617      0              2.3998198      2.5583591    
     73000   2.1376993      0.20124093     0              2.333596       3.1496921    
     73500   2.2989846      0.24614235     0              2.5393795      3.3414158    
     74000   2.3525368      0.17037056     0              2.517026       2.9804073    
     74500   2.3113658      0.21804774     0              2.5236352      3.2562737    
     75000   2.3467156      0.13945147     0              2.4803002      2.6955582    
     75500   2.1413854      0.12135831     0              2.2573903      2.4524145    
     76000   2.107284       0.13732995     0              2.2393458      2.4785858    
     76500   2.2441375      0.10567508     0              2.3442022      2.3973777    
     77000   2.3047129      0.14460556     0              2.4435567      2.671038     
     77500   2.320524       0.18946148     0              2.5041842      3.0079317    
     78000   2.1487722      0.16627754     0              2.3096778      2.6814667    
     78500   2.0157749      0.15143805     0              2.1621735      2.6797612    
     79000   2.0500505      0.13289714     0              2.1778225      2.6118654    
     79500   2.1000867      0.1728918      0              2.2677283      2.7841269    
     80000   2.2799354      0.19095788     0              2.4651935      3.0353558    
     80500   2.3548268      0.13023486     0              2.4791746      2.5858133    
     81000   2.1505193      0.1903377      0              2.3354807      3.116117     
     81500   2.1313173      0.1048206      0              2.2308096      2.3645967    
     82000   2.138646       0.1471895      0              2.2804888      2.5350451    
     82500   2.4448897      0.14191116     0              2.5806886      2.659669     
     83000   2.1188518      0.19739696     0              2.3109516      3.0406772    
     83500   2.0988568      0.11869794     0              2.2123076      2.3970715    
     84000   2.0432565      0.13263536     0              2.1707837      2.4020506    
     84500   1.9941854      0.14910229     0              2.1383022      2.4842487    
     85000   1.9563027      0.12028813     0              2.0717001      2.2799324    
     85500   1.9424329      0.14293512     0              2.080512       2.4558826    
     86000   1.8750313      0.1143125      0              1.9846562      2.2461848    
     86500   1.7341577      0.13117453     0              1.8609968      2.3086367    
     87000   1.850599       0.12440746     0              1.97038        2.2120283    
     87500   1.9782212      0.098940728    0              2.0722163      2.2450873    
     88000   2.0087386      0.11553755     0              2.1192543      2.3440398    
     88500   1.9340969      0.10208442     0              2.0313461      2.2515108    
     89000   2.0014054      0.12022622     0              2.1166281      2.4239751    
     89500   2.1889         0.13419028     0              2.317618       2.6672159    
     90000   1.9590976      0.1187775      0              2.0729774      2.2379418    
     90500   1.9360364      0.061724016    0              1.9929203      1.7907279    
     91000   1.8964605      0.12902179     0              2.0207411      2.4498704    
     91500   1.6830318      0.11196454     0              1.7907887      2.0966046    
     92000   1.7266421      0.11521877     0              1.8375443      2.1441506    
     92500   1.7013727      0.13272683     0              1.8298461      2.1977988    
     93000   1.7034974      0.10481129     0              1.8040499      2.0413598    
     93500   1.6361538      0.09699731     0              1.7290607      1.9629442    
     94000   1.7136597      0.10775302     0              1.8171285      2.1542086    
     94500   1.7196666      0.12448043     0              1.8398479      2.2571869    
     95000   1.6974003      0.15069328     0              1.8438501      2.3493756    
     95500   1.7208687      0.14565801     0              1.8622246      2.3889197    
     96000   1.802712       0.078631788    0              1.876837       1.9353051    
     96500   1.6151322      0.086830077    0              1.6979244      1.9126386    
     97000   1.6421626      0.069547287    0              1.7076045      1.7304417    
     97500   1.6421317      0.080775052    0              1.7188014      1.8834787    
     98000   1.5986239      0.11659994     0              1.7112272      2.1688941    
     98500   1.6595583      0.13841381     0              1.7938232      2.2556792    
     99000   1.6415276      0.05813147     0              1.6955553      1.6102552    
     99500   1.5554181      0.085783037    0              1.6373126      1.8357085    
    100000   1.5060087      0.097720319    0              1.599964       1.9115816    
    100500   1.4336915      0.078401591    0              1.5085089      1.7014458    
    101000   1.5384416      0.054078422    0              1.5886739      1.5267599    
    101500   1.43831        0.090178028    0              1.5248923      1.866753     
    102000   1.5215277      0.097298932    0              1.6150228      1.8453418    
    102500   1.6367952      0.081619407    0              1.7143226      1.7781529    
    103000   1.5478149      0.056947012    0              1.6008924      1.656569     
    103500   1.3772621      0.06355884     0              1.4373778      1.6638705    
    104000   1.3967763      0.064038617    0              1.457323       1.5656562    
    104500   1.4575668      0.059754104    0              1.513677       1.5864091    
    105000   1.5458327      0.090444159    0              1.6324123      1.8582682    
    105500   1.5065863      0.062488874    0              1.5653087      1.6416613    
    106000   1.3742541      0.063839043    0              1.4346575      1.575072     
    106500   1.3057367      0.059703627    0              1.362176       1.4865642    
    107000   1.2710587      0.091817335    0              1.3596984      1.6877589    
    107500   1.3711849      0.065470034    0              1.4332269      1.4937824    
    108000   1.4114571      0.10421802     0              1.5121464      1.9283556    
    108500   1.3310321      0.11206777     0              1.4397722      1.9213929    
    109000   1.3309502      0.071417793    0              1.3990406      1.6038587    
    109500   1.2340683      0.066516901    0              1.2975001      1.4878377    
    110000   1.2522911      0.029145639    0              1.278306       1.0978978    
    110500   1.1879508      0.073395541    0              1.2583765      1.5271241    
    111000   1.1596416      0.066427128    0              1.2231697      1.4725853    
    111500   1.2271378      0.081097593    0              1.3051675      1.6752961    
    112000   1.2183236      0.052389659    0              1.2676675      1.3511691    
    112500   1.2270771      0.087216964    0              1.3112264      1.695368     
    113000   1.1743189      0.078753932    0              1.2501371      1.4872906    
    113500   1.1938818      0.086598513    0              1.2774956      1.7152917    
    114000   1.0756769      0.049309229    0              1.1222969      1.2540836    
    114500   1.0673589      0.069764307    0              1.1344548      1.458198     
    115000   1.0825314      0.034375284    0              1.1142003      1.1520888    
    115500   1.0838975      0.058724763    0              1.1399125      1.420859     
    116000   1.0138337      0.066220147    0              1.0775192      1.4655439    
    116500   1.0416533      0.054464055    0              1.0935132      1.3045931    
    117000   0.98741684     0.057797295    0              1.0427456      1.3639142    
    117500   1.0048282      0.070353429    0              1.0726695      1.437765     
    118000   1.0075881      0.036615339    0              1.0416844      1.0806475    
    118500   0.99183378     0.045531164    0              1.0348854      1.2069444    
    119000   0.96074869     0.059122379    0              1.0174692      1.3768945    
    119500   0.96222187     0.055573821    0              1.0153901      1.3027023    
    120000   0.91241951     0.040447103    0              0.95058557     1.0277617    
    120500   0.91865109     0.051242504    0              0.96759697     1.2005134    
    121000   0.91395783     0.066383833    0              0.97805677     1.3130822    
    121500   0.95605199     0.056801104    0              1.010463       1.2869234    
    122000   0.97516524     0.067382667    0              1.04011        1.3601003    
    122500   0.91651851     0.051690466    0              0.96591768     1.2477923    
    123000   0.87975339     0.048682574    0              0.92623658     1.1800375    
    123500   0.83292102     0.070024071    0              0.90086279     1.3939744    
    124000   0.8595419      0.026236591    0              0.88362963     0.88219366   
    124500   0.78802405     0.03476458     0              0.82081857     0.99703406   
    125000   0.81332978     0.020517359    0              0.83181381     0.8279224    
    125500   0.78579107     0.041530464    0              0.82535706     0.94981817   
    126000   0.80283973     0.031990728    0              0.83282336     0.91555063   
    126500   0.74627657     0.024110972    0              0.76852185     0.76290344   
    127000   0.81042824     0.031179866    0              0.83958203     0.9723262    
    127500   0.76835415     0.041239464    0              0.80767272     1.007956     
    128000   0.77762916     0.043448343    0              0.81913343     0.99733523   
    128500   0.72407618     0.043202854    0              0.76546884     1.0066441    
    129000   0.72271407     0.020779783    0              0.74168707     0.71935375   
    129500   0.65555862     0.021687192    0              0.67560692     0.77031299   
    130000   0.65601348     0.04435123     0              0.69872468     1.0295115    
    130500   0.6808081      0.027576474    0              0.70668256     0.81383406   
    131000   0.73892997     0.02767724     0              0.76475989     0.81026304   
    131500   0.6639309      0.036782003    0              0.69905307     0.90516974   
    132000   0.65066366     0.029557241    0              0.67859425     0.82691397   
    132500   0.63940093     0.026373652    0              0.66417608     0.79962215   
    133000   0.6236863      0.034996984    0              0.65712407     0.84974198   
    133500   0.64200945     0.019986579    0              0.660391       0.67672853   
    134000   0.56780257     0.021765276    0              0.58814834     0.68038281   
    134500   0.53646883     0.023180523    0              0.55830818     0.6523972    
    135000   0.52102983     0.019353766    0              0.53908102     0.66149684   
    135500   0.5240678      0.018721141    0              0.54147877     0.64325128   
    136000   0.49115594     0.0082629182   0              0.49819097     0.45878018   
    136500   0.48310224     0.024405203    0              0.50629968     0.64065822   
    137000   0.49789801     0.021859324    0              0.51851259     0.65694952   
    137500   0.47326365     0.017730129    0              0.48981062     0.5935431    
    138000   0.48822426     0.016128286    0              0.50313199     0.58747446   
    138500   0.41588066     0.021625267    0              0.43646623     0.6124484    
    139000   0.40939728     0.015438296    0              0.42381208     0.54559795   
    139500   0.38468657     0.021352629    0              0.40507748     0.62126931   
    140000   0.37595341     0.016018725    0              0.39103225     0.51173215   
    140500   0.34541672     0.022578689    0              0.36713186     0.59056263   
    141000   0.35901684     0.0095697988   0              0.36768909     0.41403028   
    141500   0.35274743     0.0099719779   0              0.36183754     0.39166996   
    142000   0.35176774     0.012236638    0              0.36312496     0.45940875   
    142500   0.31993029     0.016460594    0              0.33559106     0.5110625    
    143000   0.31223474     0.011700513    0              0.32315467     0.41740602   
    143500   0.30054774     0.009855255    0              0.30965163     0.37088278   
    144000   0.25571734     0.0071937977   0              0.26227185     0.28589753   
    144500   0.24145709     0.0066781041   0              0.24753155     0.29325288   
    145000   0.22769427     0.0059857041   0              0.23311074     0.26807986   
    145500   0.22626416     0.0095238344   0              0.23522234     0.36496499   
    146000   0.22087268     0.0081238157   0              0.22844431     0.330854     
    146500   0.21618619     0.003960091    0              0.21960582     0.23488868   
    147000   0.18943257     0.00419266     0              0.19315165     0.21582358   
    147500   0.16797121     0.006670102    0              0.17422139     0.24670178   
    148000   0.15657042     0.0045463304   0              0.16072533     0.17882012   
    148500   0.13790458     0.0024356567   0              0.13999548     0.16569329   
    149000   0.12550075     0.0031239331   0              0.12831093     0.16499629   
    149500   0.12009634     0.0020726254   0              0.12186873     0.14915405   
    150000   0.10103089     0.0040360497   0              0.10481436     0.17161615   
Loop time of 1.84969 on 4 procs for 100000 steps with 400 atoms

Performance: 46710559.248 tau/day, 54063.147 timesteps/s, 21.625 Matom-step/s
98.2% CPU use with 4 MPI tasks x 1 OpenMP threads

MPI task timing breakdown:
Section |  min time  |  avg time  |  max time  |%varavg| %total
---------------------------------------------------------------
Pair    | 0.11464    | 0.11874    | 0.12982    |   1.9 |  6.42
Neigh   | 0.23453    | 0.23576    | 0.23676    |   0.2 | 12.75
Comm    | 0.9181     | 0.92811    | 0.93408    |   0.6 | 50.18
Output  | 0.1016     | 0.10182    | 0.10242    |   0.1 |  5.50
Modify  | 0.27925    | 0.28154    | 0.28351    |   0.3 | 15.22
Other   |            | 0.1837     |            |       |  9.93

Nlocal:            100 ave         102 max          99 min
Histogram: 2 0 0 1 0 0 0 0 0 1
Nghost:           37.5 ave          41 max          34 min
Histogram: 1 1 0 0 0 0 0 0 1 1
Neighs:             97 ave         101 max          93 min
Histogram: 1 0 0 0 0 2 0 0 0 1

Total # of neighbors = 388
Ave neighs/atom = 0.97
Neighbor list builds = 24795
Dangerous builds = 0
Total wall time: 0:00:02
LAMMPS (15 Sep 2022)
OMP_NUM_THREADS environment is not set. Defaulting to 1 thread. (src/comm.cpp:98)
  using 1 OpenMP thread(s) per MPI task
Lattice spacing in x,y,z = 1.2909944 1.2909944 1.2909944
Created orthogonal box = (0 0 -0.64549722) to (25.819889 25.819889 0.64549722)
  2 by 2 by 1 MPI processor grid
Created 400 atoms
  using lattice units in orthogonal box = (0 0 -0.64549722) to (25.819889 25.819889 0.64549722)
  create_atoms CPU = 0.001 seconds
Generated 0 of 0 mixed pair_coeff terms from geometric mixing rule
Neighbor list info ...
  update: every = 1 steps, delay = 0 steps, check = yes
  max neighbors/atom: 2000, page size: 100000
  master list distance cutoff = 1.3
  ghost atom cutoff = 1.3
  binsize = 0.65, bins = 40 40 2
  1 neighbor lists, perpetual/occasional/extra = 1 0 0
  (1) pair lj/cut, perpetual
      attributes: half, newton on
      pair build: half/bin/atomonly/newton
      stencil: half/bin/2d
      bin: standard
Setting up Verlet run ...
  Unit style    : lj
  Current step  : 0
  Time step     : 0.01
Per MPI rank memory allocation (min/avg/max) = 3.05 | 3.05 | 3.05 Mbytes
   Step          Temp          E_pair         E_mol          TotEng         Press     
         0   3              0              0              2.9925         1.7955       
       500   2.958882       0.24404044     0              3.1955252      4.9775814    
      1000   2.9596906      0.34255758     0              3.294849       5.7698036    
      1500   2.9486812      0.33094405     0              3.2722535      5.4733302    
      2000   3.0154441      0.34119873     0              3.3491043      5.7704854    
      2500   3.4248911      0.43847813     0              3.854807       6.4615446    
      3000   3.170195       0.40129335     0              3.5635629      6.4787033    
      3500   3.1496152      0.27047305     0              3.4122142      5.2081262    
      4000   3.0351436      0.31075632     0              3.3383121      5.4154292    
      4500   3.1611025      0.39451084     0              3.5477106      6.0386268    
      5000   2.9052559      0.41525658     0              3.3132494      6.1639575    
      5500   2.9254339      0.33305397     0              3.2511743      5.4424814    
      6000   2.9130552      0.28088854     0              3.1866611      5.1192704    
      6500   3.0475065      0.25856741     0              3.2984551      5.0514403    
      7000   2.975183       0.26167336     0              3.2294184      4.8412706    
      7500   2.9081391      0.35720123     0              3.25807        5.9499528    
      8000   2.8930688      0.28904312     0              3.1748793      5.1388979    
      8500   2.9460456      0.34473798     0              3.2834185      5.6711101    
      9000   2.9232155      0.23395029     0              3.1498578      4.8777345    
      9500   2.874052       0.31926829     0              3.1861352      5.3700116    
     10000   2.8908183      0.33345459     0              3.2170459      5.4795655    
     10500   2.8509174      0.26832032     0              3.1121104      4.9132778    
     11000   3.024353       0.24307462     0              3.2598668      4.8446046    
     11500   2.8473487      0.3720695      0              3.2122998      5.8106028    
     12000   2.8264312      0.45422974     0              3.2735948      6.4744286    
     12500   3.0748063      0.22217335     0              3.2892927      4.5997549    
     13000   3.0745872      0.24034204     0              3.3072428      4.6850255    
     13500   2.9590232      0.38123984     0              3.3328655      5.9961445    
     14000   3.0520222      0.33971151     0              3.3841036      5.8026336    
     14500   3.2439278      0.36176596     0              3.597584       5.8862382    
     15000   3.14435        0.25154804     0              3.3880372      4.9570666    
     15500   3.0668216      0.32368857     0              3.3828431      5.3469008    
     16000   3.0239566      0.24297212     0              3.2593688      4.8872088    
     16500   2.8064784      0.33881554     0              3.1382777      5.4068037    
     17000   2.9056251      0.25478687     0              3.1531479      4.8948012    
     17500   2.7409361      0.26776498     0              3.0018488      4.7383882    
     18000   2.9585666      0.24683289     0              3.1980031      4.6840918    
     18500   2.9359718      0.25098037     0              3.1796122      4.9105044    
     19000   2.6871542      0.37631871     0              3.056755       5.8836663    
     19500   2.6605196      0.24508351     0              2.8989518      4.7840435    
     20000   2.9183061      0.23247391     0              3.1434842      4.5558922    
     20500   2.9198313      0.30725371     0              3.2197855      5.3686202    
     21000   2.8268205      0.28368837     0              3.1034418      4.9073878    
     21500   2.7444414      0.31326626     0              3.0508466      5.2334802    
     22000   3.0575853      0.33329973     0              3.3832411      5.6755152    
     22500   2.9619558      0.40420945     0              3.3587604      6.2650826    
     23000   2.9891086      0.3594028      0              3.3410386      5.7563092    
     23500   2.9253128      0.46484935     0              3.3828488      6.5876252    
     24000   3.2868226      0.34520468     0              3.6238102      6.2518847    
     24500   3.3166264      0.36579762     0              3.6741325      5.9437654    
     25000   3.1136996      0.3629307      0              3.4688461      5.8555022    
     25500   2.9639905      0.38518863     0              3.3417691      5.9688271    
     26000   3.1144458      0.34147217     0              3.4481318      5.7031722    
     26500   2.9990938      0.33271557     0              3.3243117      5.4706423    
     27000   2.9487632      0.28809963     0              3.229491       5.1861124    
     27500   2.7663238      0.24504044     0              3.0044484      4.6604935    
     28000   2.7716472      0.30297977     0              3.0676978      4.9540941    
     28500   2.9661449      0.36948345     0              3.3282129      5.8371394    
     29000   3.1944842      0.25871287     0              3.4452108      5.0955046    
     29500   3.1723288      0.28934117     0              3.4537391      5.3592824    
     30000   3.0519569      0.32668231     0              3.3710094      5.5011275    
     30500   3.03275        0.35841136     0              3.3835795      5.7542792    
     31000   3.1286889      0.36049315     0              3.4813603      5.9744684    
     31500   2.9757738      0.34005127     0              3.3083856      5.5382009    
     32000   3.0252262      0.28759472     0              3.3052579      5.1396566    
     32500   3.1424757      0.33416518     0              3.4687847      5.6544797    
     33000   2.9913988      0.44355637     0              3.4274767      6.4239242    
     33500   3.1300446      0.37035663     0              3.4925761      6.1081313    
     34000   2.9901832      0.32737127     0              3.310079       5.6326188    
     34500   3.0055247      0.2793827      0              3.2773936      4.9920614    
     35000   2.8845802      0.26068982     0              3.1380586      4.9949766    
     35500   2.8697441      0.32931726     0              3.191887       5.6587774    
     36000   2.9771679      0.28042694     0              3.250152       5.342225     
     36500   3.0736749      0.27287392     0              3.3388646      5.124424     
     37000   3.0339812      0.28705062     0              3.3134469      5.0282138    
     37500   3.1131954      0.30551513     0              3.4109275      5.5195366    
     38000   3.1634881      0.24427152     0              3.3998509      4.8693607    
     38500   3.1725684      0.30003658     0              3.4646736      5.5632993    
     39000   3.0774758      0.41381288     0              3.483595       6.3741265    
     39500   3.297343       0.31077913     0              3.5998788      5.8229418    
     40000   2.9844335      0.36512982     0              3.3421022      5.7045226    
     40500   2.9892573      0.27017639     0              3.2519606      5.0368899    
     41000   2.9133041      0.29261389     0              3.1986347      5.1394853    
     41500   2.8108121      0.31231039     0              3.1160955      5.6028015    
     42000   2.8731133      0.32996951     0              3.1959         5.1494502    
     42500   2.8613275      0.34109156     0              3.1952657      5.3590074    
     43000   2.958492       0.30131246     0              3.2524082      4.8847883    
     43500   2.7940296      0.31469122     0              3.1017357      5.1482326    
     44000   2.9371493      0.34509298     0              3.2748994      5.5478753    
     44500   2.866743       0.38886783     0              3.2484439      5.7949353    
     45000   2.8299732      0.28415049     0              3.1070488      4.9557679    
     45500   3.0380044      0.19570537     0              3.2261148      4.5043396    
     46000   3.0205033      0.27355083     0              3.2865029      5.1307769    
     46500   3.1154822      0.29395538     0              3.4016489      5.1279151    
     47000   3.0620924      0.24647013     0              3.3009073      4.660795     
     47500   3.1823173      0.30236017     0              3.4767217      5.3602324    
     48000   3.0900853      0.32900901     0              3.4113691      5.4792288    
     48500   3.0322795      0.35651469     0              3.3812135      5.7073832    
     49000   2.838217       0.3053987      0              3.1365202      5.1443492    
     49500   2.9819696      0.28380552     0              3.2583202      5.1415335    
     50000   2.8285768      0.32781025     0              3.1493156      5.2398738    
Loop time of 1.01337 on 4 procs for 50000 steps with 400 atoms

Performance: 42630153.751 tau/day, 49340.456 timesteps/s, 19.736 Matom-step/s
99.4% CPU use with 4 MPI tasks x 1 OpenMP threads

MPI task timing breakdown:
Section |  min time  |  avg time  |  max time  |%varavg| %total
---------------------------------------------------------------
Pair    | 0.077564   | 0.079681   | 0.083686   |   0.8 |  7.86
Neigh   | 0.17882    | 0.18072    | 0.18396    |   0.5 | 17.83
Comm    | 0.49978    | 0.50613    | 0.51016    |   0.6 | 49.95
Output  | 0.0010919  | 0.0014317  | 0.002412   |   1.5 |  0.14
Modify  | 0.14065    | 0.14419    | 0.14682    |   0.6 | 14.23
Other   |            | 0.1012     |            |       |  9.99

Nlocal:            100 ave         103 max          97 min
Histogram: 1 0 0 1 0 0 1 0 0 1
Nghost:           43.5 ave          48 max          41 min
Histogram: 1 1 1 0 0 0 0 0 0 1
Neighs:         125.25 ave         136 max         114 min
Histogram: 2 0 0 0 0 0 0 0 0 2

Total # of neighbors = 501
Ave neighs/atom = 1.2525
Neighbor list builds = 16953
Dangerous builds = 0
Generated 0 of 0 mixed pair_coeff terms from geometric mixing rule
Setting up Verlet run ...
  Unit style    : lj
  Current step  : 50000
  Time step     : 0.01
Per MPI rank memory allocation (min/avg/max) = 3.077 | 3.077 | 3.077 Mbytes
   Step          Temp          E_pair         E_mol          TotEng         Press     
     50000   2.8285768      0.32781025     0              3.1493156      5.2398738    
     50500   2.7698848      0.45522169     0              3.2181818      6.4000144    
     51000   3.0876435      0.44102105     0              3.5209454      6.5156348    
     51500   3.1337303      0.39732861     0              3.5232245      6.2463414    
     52000   3.187939       0.18904594     0              3.3690151      4.3294152    
     52500   2.9209376      0.37771837     0              3.2913536      5.7938744    
     53000   3.0270117      0.22392193     0              3.2433661      4.6529576    
     53500   2.9311658      0.32613072     0              3.2499686      5.211321     
     54000   2.9060651      0.27949249     0              3.1782924      5.2101199    
     54500   2.6167618      0.2382935      0              2.8485134      4.5069642    
     55000   2.7391311      0.17557261     0              2.9078558      3.7634824    
     55500   2.7255822      0.24353416     0              2.9623024      4.8268648    
     56000   2.8824529      0.24600181     0              3.1212486      4.8296478    
     56500   3.1369856      0.28780133     0              3.4169445      4.9441351    
     57000   2.8776044      0.28022565     0              3.150636       5.1056451    
     57500   2.9511476      0.25736349     0              3.2011333      4.8287645    
     58000   2.7886739      0.31899947     0              3.1007017      5.5009117    
     58500   2.9765207      0.23144794     0              3.2005274      4.7316875    
     59000   2.9906064      0.3258895      0              3.3090194      5.4328492    
     59500   2.8999142      0.32944334     0              3.2221077      5.5438968    
     60000   2.7108247      0.28890721     0              2.9929549      4.9900016    
     60500   2.872391       0.20995713     0              3.0751672      4.534731     
     61000   2.9760783      0.20607683     0              3.174715       4.6440571    
     61500   2.9890582      0.29964402     0              3.2812295      5.3042288    
     62000   2.7263319      0.31489601     0              3.034412       5.3489025    
     62500   2.5980658      0.29641761     0              2.8879883      4.8365325    
     63000   2.5584124      0.18659723     0              2.7386136      4.0781067    
     63500   2.6686392      0.19762143     0              2.8595891      4.2804363    
     64000   2.6292025      0.25708039     0              2.8797099      4.6286871    
     64500   2.5950753      0.2276296      0              2.8162172      4.4014381    
     65000   2.5001562      0.22701998     0              2.7209258      4.357804     
     65500   2.4914112      0.32448465     0              2.8096673      5.275243     
     66000   2.5118102      0.18940459     0              2.6949353      3.986686     
     66500   2.2015667      0.26104111     0              2.4571039      4.5034583    
     67000   2.3140511      0.19535575     0              2.5036217      4.038575     
     67500   2.4233654      0.20145987     0              2.6187668      4.0718656    
     68000   2.483779       0.21081821     0              2.6883878      4.1579238    
     68500   2.3552403      0.29601782     0              2.64537        4.8750157    
     69000   2.3803784      0.313165       0              2.6875924      5.0555077    
     69500   2.5601687      0.25887886     0              2.8126472      4.7679241    
     70000   2.4561969      0.30528891     0              2.7553453      4.9975347    
     70500   2.5631698      0.1555405      0              2.7123024      3.7461247    
     71000   2.4651956      0.29530364     0              2.7543363      4.9850393    
     71500   2.4852383      0.16997773     0              2.6490029      3.919187     
     72000   2.3901158      0.2883371      0              2.6724776      4.9028697    
     72500   2.4201982      0.2222444      0              2.6363921      4.26379      
     73000   2.345943       0.27761691     0              2.617695       4.9245336    
     73500   2.1241549      0.2497441      0              2.3685886      4.3463616    
     74000   2.208479       0.27707737     0              2.4800352      4.7786695    
     74500   2.2752878      0.17595318     0              2.4455528      3.6766595    
     75000   2.325382       0.14852272     0              2.4680912      3.5173481    
     75500   2.2215358      0.24574996     0              2.4617319      4.3749344    
     76000   2.183156       0.24800137     0              2.4256995      4.2941516    
     76500   2.2579041      0.2063809      0              2.4586403      4.0379794    
     77000   2.3392812      0.2422777      0              2.5757107      4.5604455    
     77500   2.3181004      0.17478295     0              2.4870881      3.6519199    
     78000   2.1979962      0.24005262     0              2.4325538      4.2892377    
     78500   2.1428794      0.19704898     0              2.3345712      3.7918516    
     79000   2.0849959      0.18570185     0              2.2654852      3.6318515    
     79500   2.0275325      0.20152282     0              2.2239865      3.9224818    
     80000   2.0588313      0.14591159     0              2.1995958      3.4264577    
     80500   2.1120799      0.15777821     0              2.2645779      3.4955265    
     81000   2.1207603      0.18527886     0              2.3007373      3.880103     
     81500   2.0178738      0.22135118     0              2.2341803      3.9310029    
     82000   2.045708       0.19023981     0              2.2308336      3.7304347    
     82500   2.1081811      0.1545652      0              2.2574759      3.3463834    
     83000   2.0069736      0.23981756     0              2.2417737      4.1745903    
     83500   2.095106       0.21450613     0              2.3043744      3.9948866    
     84000   2.0483325      0.21446972     0              2.2576814      3.9579382    
     84500   2.0370918      0.19710674     0              2.2291058      3.7452635    
     85000   2.123773       0.19778795     0              2.3162515      3.783855     
     85500   2.223964       0.25705368     0              2.4754578      4.4371535    
     86000   2.0799295      0.21621793     0              2.2909476      3.9493016    
     86500   1.9330864      0.25447022     0              2.1827239      4.2486285    
     87000   1.9560457      0.22323474     0              2.1743904      4.164646     
     87500   2.0293354      0.15823871     0              2.1825008      3.4068632    
     88000   2.0295859      0.1481243      0              2.1726362      3.3031382    
     88500   1.9157032      0.20350777     0              2.1144217      3.8136873    
     89000   1.8704842      0.18187311     0              2.0476811      3.723874     
     89500   1.9077407      0.14751174     0              2.0504831      3.3435917    
     90000   1.7688609      0.24077222     0              2.005211       3.9849336    
     90500   1.6532778      0.13839541     0              1.78754        2.9833794    
     91000   1.6875128      0.12681318     0              1.8101072      2.706042     
     91500   1.7255741      0.12471358     0              1.8459738      2.9235381    
     92000   1.7128087      0.16875868     0              1.8772854      3.2365972    
     92500   1.7335312      0.15829707     0              1.8874944      3.1954441    
     93000   1.7416118      0.16278022     0              1.900038       3.3083211    
     93500   1.7615235      0.1525409      0              1.9096606      3.1736507    
     94000   1.8974179      0.15475919     0              2.0474335      3.3549246    
     94500   1.7827594      0.12330329     0              1.9016057      3.0175971    
     95000   1.731951       0.19925738     0              1.9268785      3.7240074    
     95500   1.7238907      0.13576911     0              1.8553501      2.9827767    
     96000   1.7502146      0.17593527     0              1.9217744      3.3379186    
     96500   1.6863893      0.15361059     0              1.8357839      3.1973429    
     97000   1.721651       0.11278612     0              1.830133       2.7678797    
     97500   1.6599982      0.15038585     0              1.806234       3.0124057    
     98000   1.6763234      0.11790282     0              1.7900354      2.7446297    
     98500   1.5904072      0.117049       0              1.7034802      2.8415789    
     99000   1.4763065      0.15669812     0              1.6293138      3.1191697    
     99500   1.4766315      0.14436392     0              1.6173038      2.8936526    
    100000   1.4387821      0.12031664     0              1.5555018      2.6309963    
    100500   1.4033275      0.13810398     0              1.5379231      2.8771752    
    101000   1.5531301      0.11697914     0              1.6662265      2.7399614    
    101500   1.5391379      0.16067515     0              1.6959652      3.1872499    
    102000   1.4899941      0.1653758      0              1.6516449      3.1646303    
    102500   1.6069235      0.10975914     0              1.7126653      2.6553047    
    103000   1.5195017      0.10360061     0              1.6193036      2.5049845    
    103500   1.5108979      0.11877627     0              1.6258969      2.7600109    
    104000   1.5756646      0.10956934     0              1.6812948      2.7828791    
    104500   1.4749935      0.15057931     0              1.6218854      3.0828865    
    105000   1.4046876      0.13463637     0              1.5358123      2.8681329    
    105500   1.3587618      0.074913604    0              1.4302785      2.1781254    
    106000   1.3389782      0.10962772     0              1.4452585      2.5002781    
    106500   1.3399611      0.1017397      0              1.4383509      2.4882358    
    107000   1.3072572      0.10018328     0              1.4041724      2.2648333    
    107500   1.3511726      0.097437605    0              1.4452322      2.3884138    
    108000   1.4435549      0.079713937    0              1.5196599      2.1778317    
    108500   1.3519608      0.090879304    0              1.4394602      2.3178498    
    109000   1.3009338      0.12453304     0              1.4222145      2.4876285    
    109500   1.3729569      0.11947628     0              1.4890008      2.5861781    
    110000   1.3144924      0.098247752    0              1.4094539      2.3413363    
    110500   1.26001        0.10294139     0              1.3598014      2.3919258    
    111000   1.2708082      0.12350027     0              1.3911314      2.6960689    
    111500   1.2291303      0.090573878    0              1.3166314      2.2409965    
    112000   1.2427782      0.10481241     0              1.3444837      2.4296118    
    112500   1.2050332      0.10395651     0              1.3059772      2.3065469    
    113000   1.2114774      0.06340252     0              1.2718512      1.8994178    
    113500   1.1294992      0.092911079    0              1.2195866      2.279276     
    114000   1.1149522      0.095728117    0              1.2078929      2.1766283    
    114500   1.0307755      0.085256287    0              1.1134549      2.0093915    
    115000   1.0189598      0.084942611    0              1.101355       2.1128111    
    115500   1.1121657      0.061863804    0              1.1712491      1.8692231    
    116000   1.1420858      0.080276102    0              1.2195067      1.9986317    
    116500   1.090107       0.08601067     0              1.1733924      2.1322758    
    117000   1.0697423      0.13441891     0              1.2014869      2.5804409    
    117500   1.1207741      0.077904662    0              1.1958769      2.0616168    
    118000   1.0599453      0.090146751    0              1.1474422      2.2049817    
    118500   1.045029       0.059345647    0              1.101762       1.6392344    
    119000   1.0034447      0.086807453    0              1.0877436      1.9768323    
    119500   0.93717242     0.081566943    0              1.0163964      1.9646103    
    120000   1.022034       0.056066109    0              1.075545       1.7473985    
    120500   0.96403395     0.097997941    0              1.0596218      2.1553177    
    121000   0.97451758     0.083326696    0              1.055408       1.9728417    
    121500   0.87718223     0.05080699     0              0.92579626     1.5216528    
    122000   0.88867861     0.078170076    0              0.96462698     1.9818605    
    122500   0.86098974     0.050196724    0              0.90903399     1.4478346    
    123000   0.86929456     0.065133539    0              0.93225486     1.7357315    
    123500   0.81437437     0.065037163    0              0.8773756      1.6893128    
    124000   0.81336924     0.055286329    0              0.86662215     1.4566202    
    124500   0.78886987     0.052828371    0              0.83972607     1.4156581    
    125000   0.85587206     0.071124289    0              0.92485666     1.7700784    
    125500   0.8730243      0.054409771    0              0.92525151     1.5312723    
    126000   0.80675767     0.05482345     0              0.85956422     1.5233937    
    126500   0.8266835      0.050803595    0              0.87542039     1.5562986    
    127000   0.79629128     0.046354855    0              0.8406554      1.4096058    
    127500   0.77088347     0.03335971     0              0.80231597     1.2545302    
    128000   0.67139713     0.042915748    0              0.71263438     1.3306897    
    128500   0.66025583     0.040166045    0              0.69877124     1.222663     
    129000   0.72421612     0.025089473    0              0.74749505     0.96406756   
    129500   0.7145691      0.051294093    0              0.76407677     1.4026821    
    130000   0.694258       0.033579154    0              0.72610151     1.1688893    
    130500   0.69880757     0.05982814     0              0.75688869     1.5118002    
    131000   0.67400163     0.046256308    0              0.71857293     1.360608     
    131500   0.63447722     0.056443836    0              0.68933486     1.4334201    
    132000   0.60806782     0.047899975    0              0.65444763     1.3215792    
    132500   0.57782608     0.045758442    0              0.62213996     1.3294013    
    133000   0.55293579     0.036823798    0              0.58837725     1.111536     
    133500   0.56973577     0.038190339    0              0.60650177     1.1868467    
    134000   0.58283815     0.030024778    0              0.61140583     1.0674471    
    134500   0.57384551     0.03457182     0              0.60698271     1.0885577    
    135000   0.58223707     0.031445165    0              0.61222664     1.0760514    
    135500   0.55628691     0.040485373    0              0.59538157     1.1662671    
    136000   0.48683611     0.035523503    0              0.52114252     1.0551892    
    136500   0.47436899     0.026105607    0              0.49928867     0.8782019    
    137000   0.45200995     0.035856704    0              0.48673663     1.0192424    
    137500   0.45696373     0.025646287    0              0.48146761     0.88107391   
    138000   0.42828409     0.022970882    0              0.45018426     0.86117675   
    138500   0.4283337      0.024378692    0              0.45164156     0.82332568   
    139000   0.39335124     0.023023466    0              0.41539133     0.80068869   
    139500   0.39243082     0.026724412    0              0.41817416     0.86507488   
    140000   0.3871668      0.028870618    0              0.4150695      0.85355679   
    140500   0.37540896     0.0302914      0              0.40476184     0.94851259   
    141000   0.3746064      0.01707081     0              0.3907407      0.72881765   
    141500   0.34898211     0.024442966    0              0.37255262     0.80398548   
    142000   0.36812511     0.022344149    0              0.38954894     0.74134867   
    142500   0.34006996     0.018929611    0              0.35814939     0.68291102   
    143000   0.31683697     0.013742949    0              0.32978783     0.57585851   
    143500   0.28756193     0.012500282    0              0.29934331     0.51054089   
    144000   0.26197963     0.015089698    0              0.27641438     0.60039967   
    144500   0.24695944     0.011858884    0              0.25820092     0.51362844   
    145000   0.24328624     0.010442708    0              0.25312073     0.49862075   
    145500   0.22656209     0.017884163    0              0.24387985     0.6446224    
    146000   0.24343829     0.0082324486   0              0.25106214     0.42853241   
    146500   0.21375023     0.013626359    0              0.22684221     0.55029982   
    147000   0.17949181     0.012178553    0              0.19122163     0.48804199   
    147500   0.15892392     0.0077281168   0              0.16625473     0.32142369   
    148000   0.1477216      0.0056371716   0              0.15298947     0.28944324   
    148500   0.13803295     0.0074014752   0              0.14508935     0.36749756   
    149000   0.1284935      0.0052844883   0              0.13345675     0.281763     
    149500   0.12446642     0.0030956569   0              0.12725091     0.20071549   
    150000   0.098047049    0.0028069919   0              0.10060892     0.20037001   
Loop time of 1.88885 on 4 procs for 100000 steps with 400 atoms

Performance: 45742001.543 tau/day, 52942.131 timesteps/s, 21.177 Matom-step/s
98.9% CPU use with 4 MPI tasks x 1 OpenMP threads

MPI task timing breakdown:
Section |  min time  |  avg time  |  max time  |%varavg| %total
---------------------------------------------------------------
Pair    | 0.13517    | 0.1393     | 0.14658    |   1.2 |  7.37
Neigh   | 0.25756    | 0.26196    | 0.26662    |   0.6 | 13.87
Comm    | 0.94629    | 0.95671    | 0.96487    |   0.7 | 50.65
Output  | 0.050115   | 0.050331   | 0.050921   |   0.2 |  2.66
Modify  | 0.28518    | 0.28817    | 0.29209    |   0.6 | 15.26
Other   |            | 0.1924     |            |       | 10.19

Nlocal:            100 ave         103 max          95 min
Histogram: 1 0 0 0 0 0 1 0 1 1
Nghost:          45.25 ave          47 max          43 min
Histogram: 1 0 0 0 0 1 0 1 0 1
Neighs:          129.5 ave         142 max         116 min
Histogram: 1 0 1 0 0 0 0 0 1 1

Total # of neighbors = 518
Ave neighs/atom = 1.295
Neighbor list builds = 24608
Dangerous builds = 0
Total wall time: 0:00:02
LAMMPS (15 Sep 2022)
OMP_NUM_THREADS environment is not set. Defaulting to 1 thread. (src/comm.cpp:98)
  using 1 OpenMP thread(s) per MPI task
Lattice spacing in x,y,z = 1.1952286 1.1952286 1.1952286
Created orthogonal box = (0 0 -0.5976143) to (23.904572 23.904572 0.5976143)
  2 by 2 by 1 MPI processor grid
Created 400 atoms
  using lattice units in orthogonal box = (0 0 -0.5976143) to (23.904572 23.904572 0.5976143)
  create_atoms CPU = 0.000 seconds
Generated 0 of 0 mixed pair_coeff terms from geometric mixing rule
Neighbor list info ...
  update: every = 1 steps, delay = 0 steps, check = yes
  max neighbors/atom: 2000, page size: 100000
  master list distance cutoff = 1.3
  ghost atom cutoff = 1.3
  binsize = 0.65, bins = 37 37 2
  1 neighbor lists, perpetual/occasional/extra = 1 0 0
  (1) pair lj/cut, perpetual
      attributes: half, newton on
      pair build: half/bin/atomonly/newton
      stencil: half/bin/2d
      bin: standard
Setting up Verlet run ...
  Unit style    : lj
  Current step  : 0
  Time step     : 0.01
Per MPI rank memory allocation (min/avg/max) = 3.05 | 3.05 | 3.05 Mbytes
   Step          Temp          E_pair         E_mol          TotEng         Press     
         0   3              0              0              2.9925         2.09475      
       500   2.8478059      0.4083279      0              3.2490143      7.5324532    
      1000   3.0028195      0.38881629     0              3.3841288      7.5412105    
      1500   2.9981024      0.45335385     0              3.443961       8.2943564    
      2000   3.4003552      0.47192531     0              3.8637797      8.4924063    
      2500   3.108369       0.58413254     0              3.6847307      9.6734721    
      3000   3.2089447      0.34845048     0              3.5493728      7.523803     
      3500   3.1026354      0.35596158     0              3.4508404      7.3843602    
      4000   3.041187       0.51769107     0              3.5512751      8.5969583    
      4500   3.0289376      0.43779853     0              3.4591638      7.8501894    
      5000   3.120243       0.40808305     0              3.5205255      7.7709585    
      5500   2.9510254      0.47318338     0              3.4168312      8.1720504    
      6000   2.9383315      0.53630209     0              3.4672877      8.7960259    
      6500   2.8164342      0.36131218     0              3.1707053      7.0984348    
      7000   2.7793775      0.30411599     0              3.076545       6.5634605    
      7500   2.9673332      0.40693856     0              3.3668535      7.3194643    
      8000   2.8467446      0.37040861     0              3.2100364      7.1361046    
      8500   2.9202588      0.47650385     0              3.389462       8.2598223    
      9000   2.8145311      0.53737502     0              3.3448698      8.85641      
      9500   2.7782165      0.50201383     0              3.2732848      8.4462662    
     10000   2.8482471      0.41912859     0              3.260255       7.6801005    
     10500   2.8109022      0.47205012     0              3.2759251      8.1517366    
     11000   3.0925104      0.48202523     0              3.5668044      8.4439123    
     11500   2.9175742      0.56217179     0              3.4724521      9.1964242    
     12000   3.0511339      0.49446124     0              3.5379673      8.5495664    
     12500   2.8466154      0.56533309     0              3.4048319      9.0071659    
     13000   3.0267086      0.40406154     0              3.4232034      7.7162707    
     13500   3.1416386      0.40293369     0              3.5367182      7.7979403    
     14000   3.104194       0.44474953     0              3.541183       8.2496716    
     14500   3.2678581      0.56995549     0              3.829644       9.4394709    
     15000   3.1547559      0.47346527     0              3.6203343      8.6017665    
     15500   3.098106       0.52141485     0              3.6117755      8.7334645    
     16000   3.1068443      0.45872554     0              3.5578027      8.1024993    
     16500   3.1665485      0.41666649     0              3.5752986      7.9905103    
     17000   3.2170393      0.37696069     0              3.5859574      7.5950349    
     17500   3.2122034      0.43968442     0              3.6438574      7.9030793    
     18000   3.1343607      0.4651787      0              3.5917035      8.5422247    
     18500   3.3193958      0.48046509     0              3.7915624      8.6359536    
     19000   3.1262963      0.38393772     0              3.5024183      7.8045029    
     19500   3.1969161      0.37730763     0              3.5662315      7.6355208    
     20000   3.0551915      0.45705087     0              3.5046044      8.4195529    
     20500   3.0877649      0.407792       0              3.4878375      7.9013249    
     21000   3.0894485      0.55731456     0              3.6390395      9.1990804    
     21500   2.9822632      0.52378128     0              3.4985888      8.7859999    
     22000   2.9484884      0.48659553     0              3.4277127      8.4933125    
     22500   3.0382153      0.45195057     0              3.4825703      8.1896457    
     23000   3.169575       0.38740366     0              3.5490547      7.804158     
     23500   3.0441764      0.49619387     0              3.5327599      8.2270306    
     24000   2.8819067      0.37525283     0              3.2499547      7.2168657    
     24500   2.7010202      0.47819055     0              3.1724582      8.0564066    
     25000   2.9506024      0.33549249     0              3.2787184      6.9200975    
     25500   3.0181999      0.39966712     0              3.4103215      7.8692861    
     26000   2.9593682      0.49435345     0              3.4463232      8.3953707    
     26500   2.8221059      0.40670712     0              3.2217577      7.7727226    
     27000   3.1760216      0.36035068     0              3.5284323      7.1577903    
     27500   3.2019636      0.29116524     0              3.4851239      6.6818109    
     28000   3.0807105      0.52562223     0              3.598631       8.7836395    
     28500   3.1537975      0.38058452     0              3.5264975      7.7840515    
     29000   3.1868778      0.38560557     0              3.5645161      7.4544958    
     29500   2.9687673      0.37792154     0              3.339267       7.6771081    
     30000   2.8538368      0.37759282     0              3.2242951      7.109798     
     30500   2.9754721      0.39357962     0              3.361613       7.4350067    
     31000   2.7596163      0.52042        0              3.2731373      8.0826191    
     31500   2.7180476      0.34116799     0              3.0524205      6.8290449    
     32000   2.8208034      0.47129825     0              3.2850497      7.9158555    
     32500   2.9349696      0.36832636     0              3.2959585      7.4944158    
     33000   2.9100958      0.49458475     0              3.3974053      8.3400721    
     33500   2.8773194      0.36572885     0              3.235855       7.4712758    
     34000   3.0084261      0.42736945     0              3.4282745      7.6979894    
     34500   2.8397713      0.43037909     0              3.263051       7.856969     
     35000   3.0435412      0.38591814     0              3.4218505      7.6876532    
     35500   2.9184037      0.46502457     0              3.3761323      8.4563939    
     36000   2.8079035      0.34966303     0              3.1505468      6.8655852    
     36500   2.8708304      0.48969667     0              3.35335        8.3620864    
     37000   2.918908       0.47362071     0              3.3852315      8.0126864    
     37500   2.8139186      0.43756966     0              3.2444534      7.7544181    
     38000   2.9987063      0.42817166     0              3.4193812      7.9829154    
     38500   2.9473967      0.3958355      0              3.3358637      7.6764541    
     39000   3.0563164      0.37926015     0              3.4279358      7.2199139    
     39500   3.0860735      0.43612368     0              3.514482       7.9894461    
     40000   3.2562884      0.42522961     0              3.6733772      8.3328733    
     40500   3.0859236      0.40512848     0              3.4833372      7.8348291    
     41000   3.1609083      0.37300207     0              3.5260081      7.5660657    
     41500   3.0342074      0.50570577     0              3.5323276      8.402325     
     42000   3.1131553      0.47057825     0              3.5759506      8.4149665    
     42500   3.1358181      0.44002857     0              3.5680072      8.2370991    
     43000   3.1264933      0.51570443     0              3.6343815      8.5191032    
     43500   2.9764801      0.47460989     0              3.4436488      8.1475078    
     44000   2.9222816      0.41334929     0              3.3283252      7.7601134    
     44500   2.8401547      0.5018683      0              3.3349226      8.5753658    
     45000   2.8542765      0.47771968     0              3.3248605      8.5207192    
     45500   2.7966854      0.37348974     0              3.1631834      7.0749602    
     46000   2.7858903      0.35691725     0              3.1358428      6.9469388    
     46500   2.8184448      0.46779958     0              3.2791983      8.1598821    
     47000   2.9258022      0.44458083     0              3.3630685      8.1594948    
     47500   2.8695937      0.46698094     0              3.3294006      8.0742545    
     48000   2.785479       0.43229858     0              3.2108139      7.5780406    
     48500   2.9949903      0.39780491     0              3.3853077      7.4854201    
     49000   3.1450032      0.35949306     0              3.4966338      6.7954211    
     49500   3.0107213      0.54784017     0              3.5510347      8.6476617    
     50000   3.0454251      0.47314301     0              3.5109545      8.0451887    
Loop time of 1.04582 on 4 procs for 50000 steps with 400 atoms

Performance: 41307297.748 tau/day, 47809.372 timesteps/s, 19.124 Matom-step/s
99.3% CPU use with 4 MPI tasks x 1 OpenMP threads

MPI task timing breakdown:
Section |  min time  |  avg time  |  max time  |%varavg| %total
---------------------------------------------------------------
Pair    | 0.091658   | 0.0922     | 0.092753   |   0.1 |  8.82
Neigh   | 0.19711    | 0.19973    | 0.2035     |   0.5 | 19.10
Comm    | 0.50533    | 0.50927    | 0.51158    |   0.3 | 48.70
Output  | 0.001094   | 0.0014368  | 0.0024346  |   1.5 |  0.14
Modify  | 0.14277    | 0.14376    | 0.14502    |   0.2 | 13.75
Other   |            | 0.09943    |            |       |  9.51

Nlocal:            100 ave         104 max          95 min
Histogram: 1 0 0 0 0 1 1 0 0 1
Nghost:             52 ave          55 max          49 min
Histogram: 1 1 0 0 0 0 0 0 1 1
Neighs:            157 ave         170 max         140 min
Histogram: 1 0 0 0 1 0 0 0 1 1

Total # of neighbors = 628
Ave neighs/atom = 1.57
Neighbor list builds = 16923
Dangerous builds = 0
Generated 0 of 0 mixed pair_coeff terms from geometric mixing rule
Setting up Verlet run ...
  Unit style    : lj
  Current step  : 50000
  Time step     : 0.01
Per MPI rank memory allocation (min/avg/max) = 3.077 | 3.077 | 3.077 Mbytes
   Step          Temp          E_pair         E_mol          TotEng         Press     
     50000   3.0454251      0.47314301     0              3.5109545      8.0451887    
     50500   3.1208837      0.46971966     0              3.5828011      8.4932917    
     51000   3.1395128      0.53137141     0              3.6630354      8.9165204    
     51500   3.1775339      0.37224749     0              3.5418375      7.240077     
     52000   2.9239708      0.48858966     0              3.4052506      8.1964822    
     52500   2.8308004      0.45965848     0              3.2833819      8.0710972    
     53000   2.8350066      0.35663216     0              3.1845512      7.0450765    
     53500   2.7628222      0.35735752     0              3.1132727      7.0238223    
     54000   2.6222831      0.37551792     0              2.9912453      7.3588431    
     54500   2.7321274      0.38115254     0              3.1064496      7.0520636    
     55000   2.7974256      0.3917903      0              3.1822223      7.2310483    
     55500   2.6680055      0.49560157     0              3.1569371      8.512804     
     56000   2.7295268      0.3781315      0              3.1008345      7.185418     
     56500   2.8209486      0.40841617     0              3.2223124      7.7994138    
     57000   2.7405309      0.32500303     0              3.0586826      6.8071288    
     57500   2.7661028      0.38059598     0              3.1397835      6.8649459    
     58000   2.7888051      0.32637503     0              3.1082081      6.6022228    
     58500   2.6543404      0.38509092     0              3.0327955      7.1819317    
     59000   2.9041859      0.34030041     0              3.2372259      7.158755     
     59500   2.8726987      0.29231449     0              3.1578315      6.1692617    
     60000   2.7725851      0.396876       0              3.1625297      7.5015094    
     60500   2.6925576      0.40512183     0              3.090948       7.5056651    
     61000   2.6359563      0.53473807     0              3.1641044      8.8135269    
     61500   2.8898784      0.43514661     0              3.3178003      7.9578707    
     62000   2.6815323      0.46433614     0              3.1391646      7.9292865    
     62500   2.766926       0.43340514     0              3.1934138      7.8231213    
     63000   2.5977171      0.47979134     0              3.0710142      7.9054653    
     63500   2.8992839      0.35293291     0              3.2449686      7.1804793    
     64000   2.5710697      0.47895569     0              3.0435977      8.2067125    
     64500   2.7732641      0.36548886     0              3.1318198      7.1607273    
     65000   2.7191501      0.36295398     0              3.0753062      6.9185447    
     65500   2.6406335      0.37557852     0              3.0096104      7.308657     
     66000   2.8070428      0.36128043     0              3.1613056      7.1472153    
     66500   2.59946        0.37947048     0              2.9724318      7.0956571    
     67000   2.5792494      0.35190602     0              2.9247072      6.6360577    
     67500   2.6776043      0.34011507     0              3.0110253      6.8588119    
     68000   2.3313384      0.3746779      0              2.700188       7.0416222    
     68500   2.4119443      0.3630065      0              2.7689209      6.9380315    
     69000   2.2746464      0.37662196     0              2.6455817      7.0371783    
     69500   2.3198963      0.40223953     0              2.7163361      7.0816958    
     70000   2.3122083      0.37128031     0              2.6777081      6.781844     
     70500   2.2367474      0.35804634     0              2.5892019      6.789534     
     71000   2.4080049      0.29977824     0              2.7017631      6.4136596    
     71500   2.3684195      0.37376874     0              2.7362671      6.5642548    
     72000   2.4321171      0.35616408     0              2.7822009      6.7105697    
     72500   2.4556174      0.29902829     0              2.7485067      6.2264115    
     73000   2.473989       0.30793059     0              2.7757346      6.530746     
     73500   2.4945716      0.3630956      0              2.8514308      6.8645043    
     74000   2.2740889      0.30826311     0              2.5766668      6.2703371    
     74500   2.2923876      0.27170204     0              2.5583587      5.62319      
     75000   2.255875       0.29395965     0              2.544195       6.0556375    
     75500   2.2018125      0.36954565     0              2.5658537      6.6138659    
     76000   2.3258464      0.22805179     0              2.5480835      5.3554706    
     76500   2.139874       0.22820902     0              2.3627333      5.1878818    
     77000   2.0820891      0.36385166     0              2.4407355      6.5313065    
     77500   2.193806       0.25157478     0              2.4398963      5.3742635    
     78000   2.2260831      0.26981755     0              2.4903354      5.6862127    
     78500   2.1307085      0.29079844     0              2.4161802      5.949699     
     79000   2.1230805      0.3149124      0              2.4326852      6.1707448    
     79500   2.2371129      0.3747659      0              2.606286       6.9188415    
     80000   2.0650851      0.36113063     0              2.421053       6.6809754    
     80500   2.2321333      0.30565098     0              2.532204       6.2673202    
     81000   2.1232291      0.32058202     0              2.4385031      6.1261082    
     81500   2.1370351      0.33005387     0              2.4617464      6.4993401    
     82000   2.1844518      0.26293303     0              2.4419237      5.6091819    
     82500   2.1301796      0.21878382     0              2.343638       4.9686165    
     83000   1.9661463      0.26488605     0              2.226117       5.3736467    
     83500   1.9553499      0.30539404     0              2.2558556      5.6649135    
     84000   1.8375294      0.28641581     0              2.1193514      5.5594263    
     84500   1.925306       0.31270889     0              2.2332017      6.2197298    
     85000   1.9690351      0.23991755     0              2.2040301      5.3702813    
     85500   1.9666021      0.20572506     0              2.1674107      4.873106     
     86000   1.92969        0.28702583     0              2.2118916      5.4374502    
     86500   1.9647255      0.28967373     0              2.2494874      5.4903662    
     87000   2.0950044      0.31877183     0              2.4085387      6.1895505    
     87500   1.9633438      0.21867956     0              2.177115       4.6647471    
     88000   1.9090426      0.28924633     0              2.1935163      5.6055844    
     88500   1.9391512      0.21130566     0              2.145609       5.0840766    
     89000   1.9300397      0.22810784     0              2.1533224      5.0496313    
     89500   1.9462136      0.25694795     0              2.198296       5.2959883    
     90000   1.9796628      0.21601245     0              2.1907261      4.7847805    
     90500   1.9725882      0.2596445      0              2.2273013      5.592918     
     91000   1.8482781      0.25354673     0              2.0972041      5.0184803    
     91500   1.9067074      0.18431913     0              2.0862597      4.5703956    
     92000   1.7784121      0.25752734     0              2.0314934      5.3102954    
     92500   1.8305321      0.22253704     0              2.0484929      5.1016082    
     93000   1.7903558      0.21644707     0              2.002327       4.7069351    
     93500   1.7746136      0.1821984      0              1.9523755      4.3195779    
     94000   1.6046025      0.27838718     0              1.8789781      5.030309     
     94500   1.5761703      0.21480096     0              1.7870309      4.5924929    
     95000   1.6486388      0.23614383     0              1.880661       4.8342263    
     95500   1.6134482      0.21558702     0              1.8250016      4.7075825    
     96000   1.5595984      0.22752014     0              1.7832195      5.1651988    
     96500   1.5532542      0.23634425     0              1.7857153      4.8240921    
     97000   1.5661887      0.20486011     0              1.7671334      4.4476811    
     97500   1.7222764      0.24357764     0              1.9615483      5.0322057    
     98000   1.642727       0.22900981     0              1.86763        4.8225901    
     98500   1.6646094      0.25108247     0              1.9115303      5.2549626    
[...]

Performance: 37547805.250 tau/day, 43458.108 timesteps/s, 17.383 Matom-step/s
99.6% CPU use with 4 MPI tasks x 1 OpenMP threads

MPI task timing breakdown:
Section |  min time  |  avg time  |  max time  |%varavg| %total
---------------------------------------------------------------
Pair    | 0.18871    | 0.1961     | 0.20979    |   1.9 | 17.04
Neigh   | 0.17567    | 0.17735    | 0.17888    |   0.3 | 15.41
Comm    | 0.52126    | 0.53302    | 0.54003    |   1.0 | 46.33
Output  | 0.0011191  | 0.0014805  | 0.0025168  |   1.6 |  0.13
Modify  | 0.14139    | 0.1433     | 0.14501    |   0.4 | 12.45
Other   |            | 0.09929    |            |       |  8.63

Nlocal:            100 ave         102 max          98 min
Histogram: 1 0 1 0 0 0 0 1 0 1
Nghost:             61 ave          63 max          59 min
Histogram: 1 0 0 0 0 2 0 0 0 1
Neighs:          295.5 ave         304 max         283 min
Histogram: 1 0 0 1 0 0 0 0 0 2

Total # of neighbors = 1182
Ave neighs/atom = 2.955
Neighbor list builds = 16840
Dangerous builds = 0
Generated 0 of 0 mixed pair_coeff terms from geometric mixing rule
Setting up Verlet run ...
  Unit style    : lj
  Current step  : 50000
  Time step     : 0.01
Per MPI rank memory allocation (min/avg/max) = 3.076 | 3.076 | 3.076 Mbytes
   Step          Temp          E_pair         E_mol          TotEng         Press     
     50000   2.9691605      2.0309788      0              4.9927164      44.422953    
     50500   2.8045844      2.0310027      0              4.8285757      45.371523    
     51000   3.0195395      2.0311556      0              5.0431463      43.559265    
     51500   3.1331446      2.1549129      0              5.2802246      45.601982    
     52000   2.9937989      2.0908382      0              5.0771525      44.713743    
     52500   3.0750022      1.9914299      0              5.0587446      43.875938    
     53000   2.8302638      1.9962746      0              4.8194628      42.747732    
     53500   3.2366068      1.9026754      0              5.1311907      42.956534    
     54000   2.8145282      1.9672814      0              4.7747733      43.263774    
     54500   3.1718747      1.9488097      0              5.1127548      42.891138    
     55000   2.6079633      1.9160616      0              4.517505       41.152635    
     55500   2.8176659      1.8580395      0              4.6686612      40.931817    
     56000   2.7022726      1.8270909      0              4.5226078      40.632866    
     56500   2.9180991      1.9132324      0              4.8240363      42.927345    
     57000   3.1330666      1.8839133      0              5.0091472      41.497094    
     57500   2.7059793      2.1050687      0              4.8042831      44.603179    
     58000   3.0279222      1.9289528      0              4.9493052      42.7689      
     58500   2.6523814      1.8325673      0              4.4783177      40.323611    
     59000   2.6285089      1.8723091      0              4.4942467      40.931792    
     59500   2.4518301      1.9488044      0              4.3945049      42.347381    
     60000   2.7952833      1.8376337      0              4.6259288      40.651795    
     60500   2.7009309      2.0022202      0              4.6963988      42.651436    
     61000   2.8970213      1.7581778      0              4.6479566      40.311625    
     61500   2.6231816      1.7068057      0              4.3234294      39.293608    
     62000   2.6543297      1.7079806      0              4.3556745      39.19136     
     62500   2.5940407      1.6930587      0              4.2806144      38.471029    
     63000   2.6643192      1.5679809      0              4.2256393      37.098977    
     63500   2.6304588      1.6836438      0              4.3075265      38.365731    
     64000   2.516827       1.8418397      0              4.3523747      40.534714    
     64500   2.6548479      1.663724       0              4.3119348      39.012873    
     65000   2.5120079      1.8080712      0              4.3137991      40.436155    
     65500   2.4628748      1.8096501      0              4.2663677      39.83866     
     66000   2.4717631      1.796449       0              4.2620327      40.018928    
     66500   2.4329735      1.7648775      0              4.1917686      39.353937    
     67000   2.3442036      1.6948317      0              4.0331749      38.458474    
     67500   2.4384366      1.7430377      0              4.1753782      39.078891    
     68000   2.607347       1.7380926      0              4.3389211      39.30494     
     68500   2.584058       2.1074542      0              4.6850521      44.259434    
     69000   2.5777841      1.560978       0              4.1323177      36.526023    
     69500   2.5090492      1.5087582      0              4.0115348      36.181783    
     70000   2.3549682      1.5900835      0              3.9391643      37.03676     
     70500   2.5026496      1.3743464      0              3.8707394      34.107258    
     71000   2.2719709      1.5540939      0              3.8203848      36.357035    
     71500   2.3461415      1.4218462      0              3.7621223      34.163867    
     72000   2.2917795      1.458848       0              3.744898       35.368741    
     72500   2.2545427      1.4426498      0              3.6915561      34.80405     
     73000   2.3141761      1.6353001      0              3.9436907      37.453619    
     73500   2.1509122      1.6741972      0              3.8197321      38.182802    
     74000   2.180827       1.5493737      0              3.7247487      36.762349    
     74500   2.1369173      1.5091442      0              3.6407192      35.620826    
     75000   2.2774262      1.5456167      0              3.8173493      36.280228    
     75500   2.2803286      1.6584141      0              3.9330418      37.254041    
     76000   2.5016634      1.6001159      0              4.0955252      37.541364    
     76500   2.2327672      1.5619474      0              3.7891326      37.072299    
     77000   2.2707574      1.4477745      0              3.7128551      34.818195    
     77500   2.0324935      1.5268695      0              3.5542818      35.758829    
     78000   2.223991       1.4017596      0              3.6201906      33.930352    
     78500   2.2520295      1.4715582      0              3.7179576      34.406495    
     79000   2.2116128      1.5388692      0              3.7449529      35.649571    
     79500   2.3294434      1.5165529      0              3.8401727      35.697534    
     80000   2.2374665      1.3450808      0              3.5769537      32.687122    
     80500   1.9728379      1.4934032      0              3.461309       35.185611    
     81000   2.0406707      1.4171186      0              3.4526876      34.199011    
     81500   2.1396804      1.3525004      0              3.4868315      33.28117     
     82000   2.1181733      1.4860534      0              3.5989313      35.224383    
     82500   2.0660793      1.543804       0              3.604718       36.184418    
     83000   2.1947986      1.3221905      0              3.5115021      32.095691    
     83500   2.0578127      1.3833392      0              3.4360074      33.656151    
     84000   1.9869462      1.4598761      0              3.4418549      34.846171    
     84500   2.0036925      1.3362407      0              3.334924       32.544772    
     85000   1.8785265      1.3557824      0              3.2296126      32.899697    
     85500   1.8754428      1.1352565      0              3.0060107      29.401361    
     86000   1.7705135      1.3794921      0              3.1455793      33.347207    
     86500   2.0122602      1.1772559      0              3.1844855      30.529318    
     87000   1.9191554      1.218239       0              3.1325965      30.585082    
     87500   2.1184088      1.1270749      0              3.2401876      29.843382    
     88000   2.0957189      1.2099516      0              3.3004312      31.262474    
     88500   1.9504912      1.3583949      0              3.3040099      32.625899    
     89000   1.9698215      1.220608       0              3.1855049      30.851887    
     89500   1.8274258      1.3476164      0              3.1704736      32.881366    
     90000   1.8386277      1.2554593      0              3.0894904      31.322157    
     90500   1.8021261      1.2279558      0              3.0255766      30.518137    
     91000   1.9469993      1.2142047      0              3.1563365      30.847839    
     91500   1.8757757      1.2132138      0              3.0843         31.232854    
     92000   1.8016837      1.2926927      0              3.0898723      32.148103    
     92500   1.8429424      1.0984707      0              2.9368058      28.990067    
     93000   1.815537       1.233248       0              3.0442461      31.363466    
     93500   1.7957855      1.1079278      0              2.8992238      29.099629    
     94000   1.6218257      1.2380867      0              2.8558578      30.97401     
     94500   1.7277241      1.1153802      0              2.838785       28.730566    
     95000   1.7618599      1.156          0              2.9134552      29.626265    
     95500   1.6936901      1.1118237      0              2.8012796      29.300546    
     96000   1.7558834      1.0745565      0              2.8260502      28.519996    
     96500   1.6053911      1.0156415      0              2.6170191      27.061338    
     97000   1.595052       1.0439474      0              2.6350118      27.245604    
     97500   1.55792        1.0110625      0              2.5650877      27.052263    
     98000   1.5945855      1.0409192      0              2.6315182      27.374277    
     98500   1.6485307      0.99519266     0              2.639602       26.550296    
     99000   1.5759301      1.150957       0              2.7229472      29.53921     
     99500   1.7120015      1.0307582      0              2.7384797      27.548724    
    100000   1.6118055      1.033815       0              2.641591       27.576496    
    100500   1.6056417      0.88305316     0              2.4846808      24.793999    
    101000   1.465413       0.9673605      0              2.42911        26.616098    
    101500   1.3108148      1.0825659      0              2.3901036      28.145955    
    102000   1.366836       0.95263847     0              2.3160574      25.710475    
    102500   1.4029786      0.90277692     0              2.3022481      25.031788    
    103000   1.3622359      0.91334744     0              2.2721778      25.016194    
    103500   1.4005303      0.9753907      0              2.3724196      26.663688    
    104000   1.5395715      0.86994347     0              2.405666       24.972317    
    104500   1.5390435      0.93919428     0              2.4743902      25.770275    
    105000   1.5082342      0.98467318     0              2.4891368      26.429999    
    105500   1.4172748      0.84939449     0              2.2631261      24.450797    
    106000   1.3434285      0.90304822     0              2.2431182      25.154544    
    106500   1.3372995      0.81981908     0              2.1537754      23.722691    
    107000   1.3277543      0.93006141     0              2.2544963      25.750184    
    107500   1.4312571      0.90434276     0              2.3320217      25.459194    
    108000   1.3932765      0.90428682     0              2.2940801      25.207805    
    108500   1.2638143      0.92858268     0              2.1892375      25.611649    
    109000   1.2630444      0.90511956     0              2.1650064      25.294383    
    109500   1.2818134      0.86852586     0              2.1471347      24.35548     
    110000   1.2085971      0.87244023     0              2.0780159      24.499427    
    110500   1.2729255      0.75710524     0              2.0268484      22.305841    
    111000   1.1683529      0.79392746     0              1.9593595      22.985481    
    111500   1.0880685      0.75255018     0              1.8378985      22.428523    
    112000   1.1483159      0.75950171     0              1.9049468      22.21805     
    112500   1.127265       0.85114568     0              1.9755925      23.608383    
    113000   1.223419       0.78120257     0              2.0015631      22.624704    
    113500   1.1749313      0.7675367      0              1.9395307      22.569299    
    114000   1.1394599      0.78391267     0              1.920524       22.702466    
    114500   1.0891176      0.74340242     0              1.8297973      21.934825    
    115000   1.0021284      0.76919773     0              1.7688208      22.283       
    115500   1.1027542      0.66481149     0              1.7648088      20.257489    
    116000   1.1214706      0.63652982     0              1.7551967      19.996094    
    116500   1.123696       0.7079999      0              1.8288867      21.671362    
    117000   1.1272402      0.73590025     0              1.8603224      21.555595    
    117500   1.036112       0.68144254     0              1.7149642      20.8069      
    118000   1.1324219      0.67066916     0              1.80026        20.569861    
    118500   1.0264993      0.72016908     0              1.7441021      21.786577    
    119000   1.0215625      0.72160214     0              1.7406107      21.179262    
    119500   1.0026897      0.69967282     0              1.6998558      20.79143     
    120000   0.99013627     0.65372114     0              1.6413821      20.396277    
    120500   1.00214        0.62737752     0              1.6270121      19.679345    
    121000   0.92453743     0.61647655     0              1.5387026      19.266602    
    121500   0.92534765     0.57369387     0              1.4967281      18.558024    
    122000   0.92335268     0.55335529     0              1.4743996      18.745278    
    122500   0.91789488     0.58928107     0              1.5048812      18.658873    
    123000   0.8724027      0.580484       0              1.4507057      18.735845    
    123500   0.85674054     0.58524941     0              1.4398481      18.663433    
    124000   0.8888029      0.56759543     0              1.4541763      18.65742     
    124500   0.83678262     0.59333115     0              1.4280218      18.45825     
    125000   0.81470698     0.47351756     0              1.2861878      16.518915    
    125500   0.82817075     0.49651072     0              1.322611       17.108045    
    126000   0.82318476     0.49867272     0              1.3197995      17.316847    
    126500   0.84412637     0.52332806     0              1.3653441      17.539055    
    127000   0.80086762     0.51501422     0              1.3138797      17.658135    
    127500   0.78891438     0.53205989     0              1.319002       17.059515    
    128000   0.72485281     0.48614475     0              1.2091854      16.572243    
    128500   0.694859       0.47898428     0              1.1721061      16.729671    
    129000   0.66860181     0.44223219     0              1.1091625      15.903604    
    129500   0.68872665     0.46028471     0              1.1472895      16.302825    
    130000   0.70129725     0.47138012     0              1.1709241      16.494779    
    130500   0.61391755     0.43308508     0              1.0454678      15.431709    
    131000   0.69714237     0.36696593     0              1.0623654      14.203568    
    131500   0.63852131     0.39354041     0              1.0304654      14.443031    
    132000   0.63121516     0.41483311     0              1.0444702      15.059275    
    132500   0.62375783     0.39820178     0              1.0204002      15.129058    
    133000   0.61309408     0.43058668     0              1.042148       15.163912    
    133500   0.56110692     0.35504753     0              0.91475168     13.498631    
    134000   0.55296765     0.34301304     0              0.89459827     13.353164    
    134500   0.52265178     0.33367491     0              0.85502006     12.768463    
    135000   0.48817839     0.35710317     0              0.84406111     13.610896    
    135500   0.49403945     0.31471101     0              0.80751536     12.706318    
    136000   0.49541714     0.26871695     0              0.76289555     11.606869    
    136500   0.47655401     0.29089751     0              0.76626014     12.072467    
    137000   0.45830153     0.26640185     0              0.72355763     11.235278    
    137500   0.48081267     0.27800953     0              0.75762016     11.647618    
    138000   0.43576232     0.28320224     0              0.71787515     11.799016    
    138500   0.41783975     0.28386186     0              0.70065701     11.802026    
    139000   0.41226959     0.28203193     0              0.69327084     11.686874    
    139500   0.39625008     0.25439692     0              0.64965638     10.990416    
    140000   0.37091853     0.20920657     0              0.5791978      10.012445    
    140500   0.36377643     0.21868734     0              0.58155433     9.9695785    
    141000   0.35686547     0.22000351     0              0.57597682     10.140701    
    141500   0.34923715     0.19306675     0              0.54143081     9.1233783    
    142000   0.33404851     0.21850463     0              0.55171802     9.9835483    
    142500   0.34708018     0.197109       0              0.54332148     9.6132697    
    143000   0.30622482     0.19123834     0              0.4966976      9.0459889    
    143500   0.29800641     0.20327846     0              0.50053986     9.3352585    
    144000   0.28112813     0.14575153     0              0.42617684     7.7317475    
    144500   0.27083468     0.16143206     0              0.43158965     8.355512     
    145000   0.25085585     0.14177928     0              0.39200799     7.569405     
    145500   0.24474256     0.13374306     0              0.37787376     7.2094459    
    146000   0.22090419     0.13413018     0              0.35448211     7.3028626    
    146500   0.22981766     0.13321672     0              0.36245984     7.271659     
    147000   0.1818597      0.1084724      0              0.28987746     6.3677833    
    147500   0.16543338     0.10275555     0              0.26777535     6.159522     
    148000   0.16838623     0.077317307    0              0.24528257     5.1009421    
    148500   0.13943168     0.085515467    0              0.22459856     5.5456162    
    149000   0.13895568     0.08235323     0              0.22096152     5.409071     
    149500   0.11458668     0.061699784    0              0.176          4.6219068    
    150000   0.10259989     0.062268905    0              0.1646123      4.566123     
Loop time of 2.10869 on 4 procs for 100000 steps with 400 atoms

Performance: 40973382.686 tau/day, 47422.897 timesteps/s, 18.969 Matom-step/s
99.2% CPU use with 4 MPI tasks x 1 OpenMP threads

MPI task timing breakdown:
Section |  min time  |  avg time  |  max time  |%varavg| %total
---------------------------------------------------------------
Pair    | 0.35619    | 0.36901    | 0.3945     |   2.5 | 17.50
Neigh   | 0.22723    | 0.22908    | 0.23136    |   0.3 | 10.86
Comm    | 0.9756     | 0.99775    | 1.011      |   1.3 | 47.32
Output  | 0.041841   | 0.042057   | 0.042624   |   0.2 |  1.99
Modify  | 0.28009    | 0.28523    | 0.29182    |   0.8 | 13.53
Other   |            | 0.1856     |            |       |  8.80

Nlocal:            100 ave         101 max          99 min
Histogram: 2 0 0 0 0 0 0 0 0 2
Nghost:          62.25 ave          64 max          61 min
Histogram: 1 0 0 2 0 0 0 0 0 1
Neighs:          298.5 ave         303 max         294 min
Histogram: 2 0 0 0 0 0 0 0 0 2

Total # of neighbors = 1194
Ave neighs/atom = 2.985
Neighbor list builds = 23204
Dangerous builds = 0
Total wall time: 0:00:03
