LAMMPS (15 Sep 2022)
OMP_NUM_THREADS environment is not set. Defaulting to 1 thread. (src/comm.cpp:98)
  using 1 OpenMP thread(s) per MPI task
Lattice spacing in x,y,z = 1.4142136 1.4142136 1.4142136
Created orthogonal box = (0 0 -0.70710678) to (28.284271 28.284271 0.70710678)
  8 by 8 by 1 MPI processor grid
Created 400 atoms
  using lattice units in orthogonal box = (0 0 -0.70710678) to (28.284271 28.284271 0.70710678)
  create_atoms CPU = 0.001 seconds
Generated 0 of 0 mixed pair_coeff terms from geometric mixing rule
Neighbor list info ...
  update: every = 1 steps, delay = 0 steps, check = yes
  max neighbors/atom: 2000, page size: 100000
  master list distance cutoff = 1.3
  ghost atom cutoff = 1.3
  binsize = 0.65, bins = 44 44 3
  1 neighbor lists, perpetual/occasional/extra = 1 0 0
  (1) pair lj/cut, perpetual
      attributes: half, newton on
      pair build: half/bin/atomonly/newton
      stencil: half/bin/2d
      bin: standard
Setting up Verlet run ...
  Unit style    : lj
  Current step  : 0
  Time step     : 0.01
Per MPI rank memory allocation (min/avg/max) = 3.047 | 3.047 | 3.047 Mbytes
   Step          Temp          E_pair         E_mol          TotEng         Press     
         0   3              0              0              2.9925         1.49625      
       500   2.9414678      0.21218673     0              3.1463008      3.5468229    
      1000   2.8864636      0.27572062     0              3.1549681      3.8467956    
      1500   2.939446       0.31393036     0              3.2460278      4.1927106    
      2000   3.2580645      0.36365765     0              3.613577       4.7050857    
      2500   3.2053844      0.28044813     0              3.4778191      4.0699686    
      3000   3.1291545      0.1888918      0              3.3102235      3.5374161    
      3500   2.9052286      0.22192029     0              3.1198858      3.6249192    
      4000   2.758223       0.1416572      0              2.8929847      2.9074903    
      4500   2.6774292      0.24649946     0              2.9172351      3.7613209    
      5000   2.9472957      0.29255447     0              3.232482       4.2578871    
      5500   3.027307       0.23896824     0              3.258707       3.6412094    
      6000   3.257604       0.21693128     0              3.4663913      3.754794     
      6500   3.1054098      0.13588513     0              3.2335314      2.9101793    
      7000   2.9409996      0.26280238     0              3.1964495      3.8701259    
      7500   3.0159587      0.15147838     0              3.1598971      3.0594517    
      8000   2.8098567      0.19045393     0              2.993286       3.3834431    
      8500   2.6209585      0.22151504     0              2.8359211      3.4775401    
      9000   2.7607095      0.19632832     0              2.9501361      3.5305852    
      9500   2.8889679      0.25269203     0              3.1344375      3.7961806    
     10000   2.9767394      0.25723777     0              3.2265353      3.7689353    
     10500   2.923138       0.3057269      0              3.2215571      4.1711902    
     11000   2.9989396      0.26247694     0              3.2539192      3.8965701    
     11500   3.3175227      0.28183679     0              3.5910657      4.1102622    
     12000   3.3757678      0.13947002     0              3.5067984      3.1117429    
     12500   3.0372617      0.28291524     0              3.3125838      4.1693561    
     13000   3.0842188      0.17273876     0              3.249247       3.3792214    
     13500   3.0399459      0.1734343      0              3.2057803      3.3484991    
     14000   3.1223961      0.22875568     0              3.3433457      3.7312993    
     14500   3.0721326      0.17275808     0              3.2372104      3.2476743    
     15000   2.9339548      0.20467555     0              3.1312955      3.3664152    
     15500   2.8618969      0.20598719     0              3.0607293      3.4224682    
     16000   2.6922245      0.22587224     0              2.9113662      3.6254811    
     16500   2.9380465      0.16887654     0              3.0995779      3.1189918    
     17000   3.059965       0.2001341      0              3.2524492      3.5403799    
     17500   3.0123098      0.21154692     0              3.2163259      3.568312     
     18000   3.2369645      0.26432127     0              3.4931933      3.8842566    
     18500   3.4715394      0.18337913     0              3.6462397      3.7478969    
     19000   3.1082716      0.31460643     0              3.4151073      4.3815247    
     19500   3.0716553      0.23213252     0              3.2961087      3.6810724    
     20000   3.0227633      0.21075949     0              3.2259658      3.5102017    
     20500   2.8056985      0.18637186     0              2.9850561      3.2697637    
     21000   2.9350954      0.19607682     0              3.1238345      3.3422474    
     21500   2.9405751      0.22441524     0              3.1576389      3.604662     
     22000   2.8457907      0.21089392     0              3.0495702      3.5497879    
     22500   2.6409108      0.26241635     0              2.8967249      3.657603     
     23000   2.9206337      0.1544384      0              3.0677706      3.1016117    
     23500   2.9625772      0.25775698     0              3.2129278      3.8713547    
     24000   2.9666371      0.23560367     0              3.1948242      3.6544419    
     24500   2.9388183      0.23753126     0              3.1690025      3.7584741    
     25000   3.1807124      0.17411219     0              3.3468728      3.5266247    
     25500   3.0781564      0.20879459     0              3.2792556      3.6075788    
     26000   3.1643434      0.19523033     0              3.3516629      3.553521     
     26500   3.1480556      0.25480967     0              3.3949951      3.862163     
     27000   3.1873009      0.18234878     0              3.3616814      3.384351     
     27500   3.0888575      0.20010383     0              3.2812392      3.5366381    
     28000   2.9073348      0.29829625     0              3.1983627      4.1255773    
     28500   2.9515269      0.15800436     0              3.1021525      3.0879723    
     29000   2.6880426      0.19591299     0              2.8772355      3.273246     
     29500   2.7193022      0.20802237     0              2.9205263      3.3285111    
     30000   2.9078758      0.21656122     0              3.1171674      3.3211346    
     30500   2.9404259      0.21839384     0              3.1514687      3.6191775    
     31000   3.1050788      0.1718896      0              3.2692057      3.3219851    
     31500   3.1571268      0.21988779     0              3.3691217      3.7586709    
     32000   3.0500142      0.34505498     0              3.3874441      4.5855687    
     32500   3.0310962      0.21710226     0              3.2406207      3.6793334    
     33000   2.9288707      0.19016369     0              3.1117122      3.4214866    
     33500   2.9215162      0.20005961     0              3.114272       3.3590425    
     34000   2.8353803      0.22864697     0              3.0569388      3.6753743    
     34500   3.181592       0.23128402     0              3.404922       3.616954     
     35000   3.141533       0.17315781     0              3.306837       3.3910014    
     35500   3.2150333      0.19770183     0              3.4046976      3.5856554    
     36000   3.3440587      0.24798229     0              3.5836809      4.0245861    
     36500   3.2085271      0.25881071     0              3.4593164      3.9978228    
     37000   3.0069975      0.20748753     0              3.2069675      3.6268835    
     37500   3.0627263      0.24830496     0              3.3033745      3.8967712    
     38000   3.0546333      0.30702724     0              3.354024       4.1771742    
     38500   3.1032405      0.19205972     0              3.2875421      3.4425861    
     39000   3.0211061      0.17407982     0              3.1876332      3.2015721    
     39500   2.7574143      0.21795575     0              2.9684765      3.4597188    
     40000   2.8746221      0.23760626     0              3.1050418      3.6851642    
     40500   2.8053673      0.16610888     0              2.9644627      3.0602292    
     41000   2.960384       0.18676779     0              3.1397508      3.4350899    
     41500   2.8033545      0.14168848     0              2.9380346      2.8327435    
     42000   2.9145692      0.19131331     0              3.0985961      3.3108378    
     42500   2.8216489      0.20318768     0              3.0177824      3.5007205    
     43000   2.8604465      0.20934684     0              3.0626422      3.4675431    
     43500   2.7241033      0.26248692     0              2.9797799      3.7959492    
     44000   2.9566875      0.19841709     0              3.1477129      3.4810345    
     44500   2.9892737      0.12426862     0              3.1060692      2.8953937    
     45000   2.9434441      0.15252683     0              3.0886123      2.9937418    
     45500   2.8143827      0.20955648     0              3.0169032      3.4474997    
     46000   3.2814868      0.17453312     0              3.4478162      3.390842     
     46500   3.0176434      0.37260705     0              3.3827063      4.6772188    
     47000   3.2347257      0.14475483     0              3.3713937      3.1209434    
     47500   3.0186715      0.23540098     0              3.2465258      3.7891841    
     48000   2.7943367      0.19756046     0              2.9849113      3.4649893    
     48500   2.6610372      0.26411153     0              2.9184962      3.8328252    
     49000   2.8970652      0.23255903     0              3.1223816      3.6919924    
     49500   2.7532335      0.28158748     0              3.0279379      3.7842575    
     50000   2.9955115      0.1877625      0              3.1757853      3.4439385    
Loop time of 1.57328 on 64 procs for 50000 steps with 400 atoms

Performance: 27458611.442 tau/day, 31780.800 timesteps/s, 12.712 Matom-step/s
99.5% CPU use with 64 MPI tasks x 1 OpenMP threads

MPI task timing breakdown:
Section |  min time  |  avg time  |  max time  |%varavg| %total
---------------------------------------------------------------
Pair    | 0.006863   | 0.0073825  | 0.0084971  |   0.3 |  0.47
Neigh   | 0.014655   | 0.01525    | 0.016075   |   0.3 |  0.97
Comm    | 0.66419    | 0.73313    | 0.86752    |   6.8 | 46.60
Output  | 0.0037714  | 0.0039518  | 0.0052534  |   0.3 |  0.25
Modify  | 0.27468    | 0.46681    | 0.59216    |  12.3 | 29.67
Other   |            | 0.3467     |            |       | 22.04

Nlocal:           6.25 ave           9 max           4 min
Histogram: 4 0 12 0 24 0 13 0 10 1
Nghost:        12.8594 ave          16 max           9 min
Histogram: 2 6 8 0 7 16 0 14 7 4
Neighs:         6.3125 ave          12 max           1 min
Histogram: 1 5 8 9 15 7 9 4 3 3

Total # of neighbors = 404
Ave neighs/atom = 1.01
Neighbor list builds = 16964
Dangerous builds = 0
Generated 0 of 0 mixed pair_coeff terms from geometric mixing rule
Setting up Verlet run ...
  Unit style    : lj
  Current step  : 50000
  Time step     : 0.01
Per MPI rank memory allocation (min/avg/max) = 3.068 | 3.068 | 3.068 Mbytes
   Step          Temp          E_pair         E_mol          TotEng         Press     
     50000   2.9955115      0.1877625      0              3.1757853      3.4439385    
     50500   2.8268157      0.18736772     0              3.0071163      3.1719234    
     51000   2.783698       0.16311554     0              2.9398543      3.0227393    
     51500   2.9075772      0.1893838      0              3.0896921      3.2502998    
     52000   2.7711387      0.31213819     0              3.076349       4.0055643    
     52500   2.9160073      0.25676346     0              3.1654807      3.8660551    
     53000   2.9621459      0.14575029     0              3.1004908      3.1587178    
     53500   3.0377679      0.24001248     0              3.270186       3.6103407    
     54000   3.29399        0.22747737     0              3.5132324      3.7889055    
     54500   2.9160526      0.21793417     0              3.1266967      3.4498275    
     55000   3.0433692      0.25762508     0              3.2933858      4.0590624    
     55500   3.086795       0.26404862     0              3.3431266      4.0070964    
     56000   2.9449973      0.25647726     0              3.194112       3.6858533    
     56500   2.8165875      0.23904315     0              3.0485891      3.6319782    
     57000   2.7720833      0.25623879     0              3.0213919      3.783677     
     57500   2.4990761      0.29042457     0              2.783253       4.0035603    
     58000   2.7123528      0.19607878     0              2.9016507      3.4509264    
     58500   2.606357       0.21373753     0              2.8135787      3.5118433    
     59000   2.5933894      0.2242822      0              2.8111881      3.3363717    
     59500   2.6810777      0.21954053     0              2.8939156      3.3359043    
     60000   2.735309       0.17030554     0              2.8987762      3.0831449    
     60500   2.7207147      0.18032424     0              2.8942372      3.287485     
     61000   2.6995204      0.17968575     0              2.8724573      3.041108     
     61500   2.8331269      0.14629285     0              2.9723369      3.0278458    
     62000   2.7447309      0.16590282     0              2.9037719      3.1017078    
     62500   2.7488428      0.19394333     0              2.935914       3.2976847    
     63000   2.8032901      0.22933837     0              3.0256203      3.6246646    
     63500   2.7545796      0.16564992     0              2.9133431      3.1052053    
     64000   2.6112007      0.16285879     0              2.7675315      3.0456066    
     64500   2.6041623      0.14707952     0              2.7447315      2.8422357    
     65000   2.5357919      0.20975557     0              2.739208       3.2782283    
     65500   2.6289196      0.24319497     0              2.8655422      3.7170633    
     66000   2.8370208      0.18921295     0              3.0191412      3.2936713    
     66500   2.6276355      0.15554615     0              2.7766126      2.9615713    
     67000   2.5082531      0.15725901     0              2.6592415      2.9342783    
     67500   2.3779778      0.19247253     0              2.5645054      3.0668755    
     68000   2.3014578      0.15738788     0              2.4530921      2.8294426    
     68500   2.3839137      0.22389672     0              2.6018506      3.2061726    
     69000   2.4654622      0.13958267     0              2.5988812      2.8181055    
     69500   2.4342263      0.19425306     0              2.6223938      3.1453531    
     70000   2.5271562      0.20834264     0              2.729181       3.1274072    
     70500   2.4460572      0.14685717     0              2.5867992      2.8650174    
     71000   2.5773364      0.11502559     0              2.6859187      2.6715447    
     71500   2.4162288      0.14181117     0              2.5519994      2.7455238    
     72000   2.3576542      0.13947641     0              2.4912364      2.6768746    
     72500   2.2860957      0.12739929     0              2.4077797      2.5306088    
     73000   2.3533442      0.10417843     0              2.4516393      2.4091986    
     73500   2.2148045      0.19718384     0              2.4064513      2.9603447    
     74000   2.2264567      0.086728174    0              2.3076187      2.1823951    
     74500   2.1095205      0.15497804     0              2.2592247      2.5309987    
     75000   2.2505686      0.10243672     0              2.3473789      2.3970387    
     75500   2.1994376      0.19425883     0              2.3881979      2.9807647    
     76000   2.343984       0.14784718     0              2.4859712      2.7105843    
     76500   2.2669601      0.1437194      0              2.4050121      2.898862     
     77000   2.3911124      0.13803349     0              2.5231682      2.5902381    
     77500   2.260985       0.10755427     0              2.3628868      2.3118866    
     78000   2.2661081      0.12048615     0              2.380929       2.6031148    
     78500   2.165217       0.15965085     0              2.3194548      2.6914499    
     79000   2.2909514      0.14415041     0              2.4293745      2.6458115    
     79500   2.0897934      0.10604449     0              2.1906134      2.2507374    
     80000   2.0568702      0.095402466    0              2.1471305      2.2126784    
     80500   1.9818914      0.16700152     0              2.1439382      2.7633967    
     81000   2.0148626      0.19467316     0              2.2044986      3.0739447    
     81500   2.0696533      0.14221249     0              2.2066916      2.4668704    
     82000   2.0992751      0.14724048     0              2.2412674      2.6637849    
     82500   2.0564681      0.15453279     0              2.2058597      2.670148     
     83000   2.0834169      0.13396887     0              2.2121772      2.5352218    
     83500   2.2830824      0.1440142      0              2.4213889      2.6855811    
     84000   2.1762111      0.12545185     0              2.2962224      2.6147993    
     84500   1.9789095      0.12292981     0              2.096892       2.2863917    
     85000   1.9454859      0.10678583     0              2.047408       2.0567475    
     85500   1.8036806      0.13772031     0              1.9368917      2.3895397    
     86000   1.8315626      0.12370757     0              1.9506913      2.3241337    
     86500   1.9076446      0.11935616     0              2.0222317      2.4557983    
     87000   1.9289231      0.12757495     0              2.0516757      2.3881385    
     87500   1.9805272      0.11274517     0              2.0883211      2.3678561    
     88000   1.9860111      0.098283132    0              2.0793292      2.2727906    
     88500   1.8682667      0.16684211     0              2.0304381      2.7907553    
     89000   1.8538864      0.086028471    0              1.9352802      2.0035784    
     89500   2.0862837      0.13386817     0              2.2149362      2.3903393    
     90000   2.0040291      0.11601051     0              2.1150296      2.3557442    
     90500   1.8880925      0.093367815    0              1.9767401      2.0748502    
     91000   1.7555728      0.10042152     0              1.8516054      2.0380481    
     91500   1.7014315      0.070397177    0              1.7675751      1.7192896    
     92000   1.6642023      0.10847833     0              1.7685201      2.0981747    
     92500   1.8836899      0.086256053    0              1.9652367      2.0204026    
     93000   1.8776791      0.074258301    0              1.9472432      1.8703424    
     93500   1.7587595      0.099472882    0              1.8538355      2.0614798    
     94000   1.7860315      0.13525523     0              1.9168216      2.2349902    
     94500   1.6923196      0.12699622     0              1.815085       2.2283135    
     95000   1.6786004      0.12878875     0              1.8031926      2.2100174    
     95500   1.6672499      0.08328627     0              1.7463681      1.9074826    
     96000   1.5059418      0.075018641    0              1.5771956      1.7211533    
     96500   1.5627427      0.08748352     0              1.6463194      1.8467146    
     97000   1.5706386      0.10402707     0              1.6707391      2.0419984    
     97500   1.645724       0.073585932    0              1.7151956      1.7722936    
     98000   1.6808735      0.098971574    0              1.7756429      2.1289861    
     98500   1.5973691      0.10510903     0              1.6984847      2.0775461    
     99000   1.6490629      0.081939307    0              1.7268795      1.9551072    
     99500   1.567151       0.078519327    0              1.6417524      1.7568981    
    100000   1.593462       0.099464771    0              1.6889431      1.9892216    
    100500   1.56882        0.093340835    0              1.6582388      2.0140125    
    101000   1.5545539      0.13682753     0              1.6874951      2.1370691    
    101500   1.4093311      0.073041987    0              1.4788498      1.6431628    
    102000   1.3806527      0.096832933    0              1.474034       1.9099268    
    102500   1.4605232      0.081226978    0              1.5380988      1.730734     
    103000   1.5139373      0.074180393    0              1.5843329      1.7437869    
    103500   1.446247       0.079515833    0              1.5221472      1.7816313    
    104000   1.4853927      0.069220918    0              1.5509002      1.6290401    
    104500   1.4550164      0.068404421    0              1.5197833      1.6724002    
    105000   1.4998417      0.088603331    0              1.5846954      1.8021518    
    105500   1.4711919      0.050789844    0              1.5183037      1.4835331    
    106000   1.4006099      0.066464864    0              1.4635733      1.6406089    
    106500   1.3772366      0.06459269     0              1.4383862      1.5987451    
    107000   1.3622061      0.055653998    0              1.4144546      1.4924077    
    107500   1.4022834      0.059551108    0              1.4583288      1.5405437    
    108000   1.2872293      0.10809738     0              1.3921086      1.9112089    
    108500   1.3481365      0.074809259    0              1.4195754      1.6368554    
    109000   1.2956736      0.072065158    0              1.3644996      1.5497782    
    109500   1.2932278      0.094287566    0              1.3842823      1.7957508    
    110000   1.2827349      0.06091678     0              1.3404449      1.4911925    
    110500   1.2115991      0.079956795    0              1.2885269      1.767277     
    111000   1.2169732      0.068879313    0              1.2828101      1.6032785    
    111500   1.1586938      0.050660416    0              1.2064574      1.2482935    
    112000   1.1962808      0.059698212    0              1.2529883      1.3828564    
    112500   1.1246417      0.056521639    0              1.1783518      1.3331467    
    113000   1.1007537      0.065735869    0              1.1637377      1.3984731    
    113500   1.1459909      0.066745845    0              1.2098718      1.463113     
    114000   1.2144372      0.051478889    0              1.26288        1.3615095    
    114500   1.2021698      0.060994318    0              1.2601587      1.3921875    
    115000   1.13484        0.079454026    0              1.2114569      1.6379606    
    115500   1.1444946      0.042781531    0              1.1844149      1.2369182    
    116000   1.0590144      0.066958576    0              1.1233254      1.4242109    
    116500   0.96632658     0.06709878     0              1.0310095      1.3806197    
    117000   1.0559386      0.034310533    0              1.0876092      1.0965439    
    117500   1.015239       0.069300209    0              1.0820011      1.4389508    
    118000   1.0243807      0.036188876    0              1.0580087      1.1071895    
    118500   1.0107624      0.047636555    0              1.0558721      1.2280391    
    119000   1.0076985      0.059063014    0              1.0642423      1.243942     
    119500   1.0492015      0.042765816    0              1.0893443      1.2055306    
    120000   0.98358025     0.052168937    0              1.0332902      1.2704937    
    120500   1.0134947      0.047329302    0              1.0582903      1.1699725    
    121000   0.9662681      0.029713073    0              0.9935655      0.99545275   
    121500   0.89710822     0.070799704    0              0.96566516     1.3912509    
    122000   0.90629958     0.030864163    0              0.93489799     1.0038308    
    122500   0.84413113     0.041143207    0              0.88316401     1.1365488    
    123000   0.78447736     0.044704218    0              0.82722039     1.1331487    
    123500   0.8721531      0.029369789    0              0.8993425      0.92012776   
    124000   0.86805125     0.049361248    0              0.91524237     1.094091     
    124500   0.84215781     0.053366758    0              0.89341917     1.214003     
    125000   0.88639719     0.049213623    0              0.93339482     1.1998839    
    125500   0.81722723     0.046255304    0              0.86143946     1.054793     
    126000   0.79498455     0.049207909    0              0.842205       1.1138342    
    126500   0.72202871     0.045256625    0              0.76548026     1.0276302    
    127000   0.69077482     0.040382821    0              0.7294307      0.99673693   
    127500   0.73794912     0.022869827    0              0.75897408     0.77795286   
    128000   0.70619688     0.038413817    0              0.7428452      0.98663169   
    128500   0.73162227     0.024104914    0              0.75389813     0.80769998   
    129000   0.72002003     0.022659852    0              0.74087983     0.79249706   
    129500   0.73037639     0.021686522    0              0.75023697     0.8255209    
    130000   0.68120153     0.030324963    0              0.70982349     0.82949226   
    130500   0.68221565     0.027681123    0              0.70819123     0.84884841   
    131000   0.6490559      0.03118361     0              0.67861687     0.83826451   
    131500   0.59165636     0.039138371    0              0.62931559     0.91547715   
    132000   0.55278345     0.03659995     0              0.58800144     0.79798      
    132500   0.57284404     0.01367785     0              0.58508978     0.5539797    
    133000   0.61149428     0.023036705    0              0.63300225     0.7522278    
    133500   0.6138328      0.020114943    0              0.63241316     0.72632384   
    134000   0.58396757     0.018662117    0              0.60116977     0.65496434   
    134500   0.5880425      0.013266024    0              0.59983842     0.56071625   
    135000   0.58191172     0.028909045    0              0.60936599     0.79858767   
    135500   0.56353801     0.022023928    0              0.58415309     0.71504798   
    136000   0.48345763     0.012438447    0              0.49468743     0.53290782   
    136500   0.46506671     0.017685407    0              0.48158945     0.61499385   
    137000   0.45997209     0.013004788    0              0.47182695     0.51796073   
    137500   0.44793302     0.022727069    0              0.46954025     0.61801102   
    138000   0.45434553     0.015043394    0              0.46825306     0.55329759   
    138500   0.44959188     0.029267293    0              0.47773519     0.68536551   
    139000   0.44228562     0.016008801    0              0.45718871     0.5534674    
    139500   0.41209548     0.012815842    0              0.42388108     0.48459042   
    140000   0.41976844     0.0086890269   0              0.42740804     0.41071754   
    140500   0.37792579     0.016905355    0              0.39388633     0.54228171   
    141000   0.37871211     0.018398318    0              0.39616365     0.50580885   
    141500   0.35629794     0.011073406    0              0.3664806      0.43399044   
    142000   0.34096152     0.0086840319   0              0.34879315     0.3815524    
    142500   0.34967092     0.010671549    0              0.3594683      0.41762883   
    143000   0.30344058     0.013818649    0              0.31650063     0.43663931   
    143500   0.29035894     0.0088378832   0              0.29847093     0.34142532   
    144000   0.27338145     0.010525362    0              0.28322336     0.40194751   
    144500   0.27046809     0.0060233091   0              0.27581523     0.30987557   
    145000   0.23087258     0.0075494776   0              0.23784487     0.31495589   
    145500   0.22405866     0.005826388    0              0.2293249      0.27557964   
    146000   0.21451644     0.0086996617   0              0.22267981     0.33678028   
    146500   0.18120417     0.0052753573   0              0.18602651     0.23832022   
    147000   0.18661948     0.0040828947   0              0.19023582     0.21340775   
    147500   0.17011888     0.0043102457   0              0.17400383     0.23458579   
    148000   0.16008887     0.0028666698   0              0.16255532     0.18408574   
    148500   0.134141       0.002768502    0              0.13657415     0.15560069   
    149000   0.12879211     0.0033927408   0              0.13186287     0.18599276   
    149500   0.1218764      0.0046750836   0              0.1262468      0.23425067   
    150000   0.093248684    0.0015096367   0              0.094525199    0.10278993   
Loop time of 2.91944 on 64 procs for 100000 steps with 400 atoms

Performance: 29594684.443 tau/day, 34253.107 timesteps/s, 13.701 Matom-step/s
99.5% CPU use with 64 MPI tasks x 1 OpenMP threads

MPI task timing breakdown:
Section |  min time  |  avg time  |  max time  |%varavg| %total
---------------------------------------------------------------
Pair    | 0.01271    | 0.013679   | 0.015932   |   0.5 |  0.47
Neigh   | 0.021325   | 0.02215    | 0.023722   |   0.3 |  0.76
Comm    | 1.0981     | 1.249      | 1.5346     |  10.2 | 42.78
Output  | 0.079699   | 0.08019    | 0.080798   |   0.1 |  2.75
Modify  | 0.50364    | 0.87459    | 1.1048     |  17.6 | 29.96
Other   |            | 0.6799     |            |       | 23.29

Nlocal:           6.25 ave           9 max           3 min
Histogram: 2 3 0 13 0 19 15 0 10 2
Nghost:        13.0469 ave          18 max           9 min
Histogram: 1 3 11 11 15 11 3 5 3 1
Neighs:        5.89062 ave          15 max           0 min
Histogram: 2 6 14 7 15 9 8 1 1 1

Total # of neighbors = 377
Ave neighs/atom = 0.9425
Neighbor list builds = 24657
Dangerous builds = 0
Total wall time: 0:00:04
LAMMPS (15 Sep 2022)
OMP_NUM_THREADS environment is not set. Defaulting to 1 thread. (src/comm.cpp:98)
  using 1 OpenMP thread(s) per MPI task
Lattice spacing in x,y,z = 1.2909944 1.2909944 1.2909944
Created orthogonal box = (0 0 -0.64549722) to (25.819889 25.819889 0.64549722)
  8 by 8 by 1 MPI processor grid
Created 400 atoms
  using lattice units in orthogonal box = (0 0 -0.64549722) to (25.819889 25.819889 0.64549722)
  create_atoms CPU = 0.001 seconds
Generated 0 of 0 mixed pair_coeff terms from geometric mixing rule
Neighbor list info ...
  update: every = 1 steps, delay = 0 steps, check = yes
  max neighbors/atom: 2000, page size: 100000
  master list distance cutoff = 1.3
  ghost atom cutoff = 1.3
  binsize = 0.65, bins = 40 40 2
  1 neighbor lists, perpetual/occasional/extra = 1 0 0
  (1) pair lj/cut, perpetual
      attributes: half, newton on
      pair build: half/bin/atomonly/newton
      stencil: half/bin/2d
      bin: standard
Setting up Verlet run ...
  Unit style    : lj
  Current step  : 0
  Time step     : 0.01
Per MPI rank memory allocation (min/avg/max) = 3.047 | 3.047 | 3.047 Mbytes
   Step          Temp          E_pair         E_mol          TotEng         Press     
         0   3              0              0              2.9925         1.7955       
       500   2.8851679      0.32344679     0              3.2014018      5.5857604    
      1000   2.9373528      0.3500748      0              3.2800842      5.6677891    
      1500   3.0754044      0.29262734     0              3.3603432      5.2154388    
      2000   3.1986677      0.35341299     0              3.544084       5.9138777    
      2500   3.3695771      0.39487065     0              3.7560238      6.0787621    
      3000   3.1267783      0.33479177     0              3.4537531      5.7539664    
      3500   3.0325155      0.28986324     0              3.3147974      5.1627727    
      4000   2.9181686      0.33314691     0              3.2440201      5.3952495    
      4500   3.0465036      0.24345754     0              3.2823449      4.9139539    
      5000   2.7876276      0.34022081     0              3.1208793      5.6169429    
      5500   2.9987964      0.26219265     0              3.2534921      4.943119     
      6000   3.0281087      0.20315633     0              3.2236948      4.4654004    
      6500   2.847195       0.25419378     0              3.0942708      5.0302154    
      7000   2.9482367      0.32626701     0              3.2671332      5.2464075    
      7500   2.9381205      0.35507302     0              3.2858482      5.508879     
      8000   3.0562909      0.36734557     0              3.4159957      6.0263008    
      8500   2.8325545      0.31514807     0              3.1406212      5.2767497    
      9000   2.9085876      0.44516022     0              3.3464764      6.4067199    
      9500   3.1145588      0.37940966     0              3.486182       6.2201656    
     10000   3.1961563      0.22889317     0              3.417059       4.8138921    
     10500   3.1132594      0.30198231     0              3.4074585      5.4115203    
     11000   3.3480806      0.20924445     0              3.5489548      4.7155313    
     11500   2.9359992      0.29581375     0              3.224473       5.1994061    
     12000   2.8718299      0.29240759     0              3.1570579      5.2447702    
     12500   2.8548866      0.31484234     0              3.1625917      5.1275075    
     13000   2.8305414      0.30201797     0              3.125483       5.0410243    
     13500   2.929551       0.35802458     0              3.2802517      5.8405881    
     14000   3.1201631      0.35604644     0              3.4684091      5.5413931    
     14500   3.1786658      0.22963862     0              3.4003577      4.8952011    
     15000   3.0658         0.31369513     0              3.3718306      5.4528229    
     15500   3.0792144      0.37882163     0              3.450338       5.8939754    
     16000   2.9883781      0.32358274     0              3.3044899      5.5877543    
     16500   3.0697072      0.37850328     0              3.4405362      5.9370136    
     17000   2.9765902      0.33280915     0              3.3019579      5.5929365    
     17500   3.1408287      0.29221718     0              3.4251938      5.3233416    
     18000   3.2131229      0.28240548     0              3.4874956      5.3721403    
     18500   3.2562602      0.24567004     0              3.4937896      5.2063587    
     19000   2.9221082      0.46958337     0              3.3843863      6.4875754    
     19500   3.0205702      0.29271015     0              3.3057289      5.1562889    
     20000   2.8339153      0.35478364     0              3.1816142      5.931457     
     20500   2.9343965      0.25494121     0              3.1820017      4.9066324    
     21000   3.1587657      0.26728681     0              3.4181556      5.1481438    
     21500   3.0393181      0.34454004     0              3.3762599      5.7760127    
     22000   3.0446006      0.49731457     0              3.5343037      7.0793637    
     22500   3.2471187      0.32529329     0              3.5642942      5.9071644    
     23000   3.1094845      0.33824448     0              3.4399553      5.8765443    
     23500   3.0746174      0.28884031     0              3.3557712      5.1345201    
     24000   2.7705923      0.36288907     0              3.1265549      5.7857758    
     24500   2.9578726      0.30664077     0              3.2571187      5.308907     
     25000   3.0586035      0.14371922     0              3.1946762      3.9280249    
     25500   2.8998256      0.31859712     0              3.2111731      5.4412866    
     26000   2.8059664      0.3441688      0              3.1431203      5.6001113    
     26500   2.8957082      0.27555599     0              3.1640249      5.1138778    
     27000   2.8724769      0.27580355     0              3.1410993      5.1311159    
     27500   3.0964561      0.42173686     0              3.5104518      6.0823226    
     28000   2.948378       0.30503454     0              3.2460416      5.3530342    
     28500   2.9853451      0.29431357     0              3.2721953      5.0542347    
     29000   2.7990513      0.35889315     0              3.1509468      5.8191004    
     29500   3.0574035      0.23983565     0              3.2895956      4.7861271    
     30000   3.1354058      0.32427895     0              3.4518462      5.4277089    
     30500   3.0400092      0.37318697     0              3.4055962      6.1757072    
     31000   3.1418227      0.25835395     0              3.3923221      4.9968147    
     31500   3.0915583      0.4080798      0              3.4919092      6.5343409    
     32000   3.1144444      0.32565944     0              3.4323178      5.8161573    
     32500   2.8215798      0.28431292     0              3.0988387      5.0410445    
     33000   3.0630649      0.15495137     0              3.2103586      3.9100009    
     33500   2.8485573      0.27983875     0              3.1212747      4.9423821    
     34000   2.6104928      0.28410218     0              2.8880688      4.955769     
     34500   2.8060508      0.3401813      0              3.139217       5.3657406    
     35000   2.966955       0.23905593     0              3.1985935      4.7872692    
     35500   2.8544338      0.40735424     0              3.254652       6.115685     
     36000   2.6851559      0.39971478     0              3.0781578      5.9772123    
     36500   2.8345272      0.26539882     0              3.0928397      4.7914633    
     37000   2.8740808      0.24983698     0              3.1167326      4.7771869    
     37500   2.8903567      0.28404065     0              3.1671714      5.1544264    
     38000   2.9343896      0.24656749     0              3.1736211      4.8932087    
     38500   2.9885486      0.24424011     0              3.2253173      4.7545312    
     39000   2.8436801      0.30477933     0              3.1413503      5.1508986    
     39500   3.3176875      0.28888931     0              3.5982826      5.3072677    
     40000   3.1498746      0.29855856     0              3.4405585      5.3256645    
     40500   3.1131888      0.36535074     0              3.4707565      5.7059733    
     41000   3.0941686      0.30640008     0              3.3928333      5.5496512    
     41500   3.0280716      0.40083275     0              3.4213341      6.1220094    
     42000   3.1621546      0.26642219     0              3.4206714      5.1767153    
     42500   2.9126252      0.29967043     0              3.205014       5.2325687    
     43000   2.9310194      0.35959437     0              3.2832862      5.7847624    
     43500   2.8023962      0.39418433     0              3.1895746      5.9725589    
     44000   2.9813273      0.25257427     0              3.2264483      4.6761553    
     44500   2.7500843      0.29161229     0              3.0348213      5.1272815    
     45000   2.7203755      0.25450982     0              2.9680844      4.8403597    
     45500   2.9445759      0.38341473     0              3.3206292      5.962554     
     46000   2.9662749      0.37451094     0              3.3333702      5.8534801    
     46500   3.2647078      0.31662705     0              3.573173       5.4728864    
     47000   3.1417876      0.29624746     0              3.4301806      5.1362952    
     47500   3.0155494      0.30430457     0              3.312315       5.2075345    
     48000   3.0780361      0.36075995     0              3.431101       6.0341533    
     48500   3.1441939      0.20495076     0              3.3412841      4.4880731    
     49000   3.0454074      0.24697556     0              3.2847694      4.8581739    
     49500   2.9336058      0.31563787     0              3.2419096      5.1613876    
     50000   2.909053       0.22704419     0              3.1288246      4.7057835    
Loop time of 1.591 on 64 procs for 50000 steps with 400 atoms

Performance: 27152705.705 tau/day, 31426.743 timesteps/s, 12.571 Matom-step/s
99.4% CPU use with 64 MPI tasks x 1 OpenMP threads

MPI task timing breakdown:
Section |  min time  |  avg time  |  max time  |%varavg| %total
---------------------------------------------------------------
Pair    | 0.0076961  | 0.0083666  | 0.0092006  |   0.4 |  0.53
Neigh   | 0.015706   | 0.01629    | 0.017908   |   0.3 |  1.02
Comm    | 0.66436    | 0.74122    | 0.8838     |   7.2 | 46.59
Output  | 0.0036492  | 0.0038324  | 0.0050006  |   0.3 |  0.24
Modify  | 0.26443    | 0.47773    | 0.61038    |  13.7 | 30.03
Other   |            | 0.3436     |            |       | 21.59

Nlocal:           6.25 ave           9 max           3 min
Histogram: 1 7 0 11 0 17 15 0 10 3
Nghost:        14.2031 ave          20 max           9 min
Histogram: 3 6 6 9 11 8 13 5 1 2
Neighs:        7.96875 ave          16 max           2 min
Histogram: 4 6 11 8 8 13 7 3 1 3

Total # of neighbors = 510
Ave neighs/atom = 1.275
Neighbor list builds = 16889
Dangerous builds = 0
Generated 0 of 0 mixed pair_coeff terms from geometric mixing rule
Setting up Verlet run ...
  Unit style    : lj
  Current step  : 50000
  Time step     : 0.01
Per MPI rank memory allocation (min/avg/max) = 3.068 | 3.068 | 3.068 Mbytes
   Step          Temp          E_pair         E_mol          TotEng         Press     
     50000   2.909053       0.22704419     0              3.1288246      4.7057835    
     50500   2.9653836      0.28127336     0              3.2392435      4.9051549    
     51000   3.2400697      0.33555091     0              3.5675204      5.9105135    
     51500   3.2550017      0.31246383     0              3.559328       5.694972     
     52000   2.9792758      0.36978218     0              3.3416098      6.0464065    
     52500   3.05017        0.23397591     0              3.2765205      4.791223     
     53000   2.9691718      0.31240891     0              3.2741578      5.1418657    
     53500   2.9667471      0.25567859     0              3.2150088      5.0335817    
     54000   2.8107402      0.26912459     0              3.0728379      4.923095     
     54500   2.7739416      0.31653211     0              3.0835389      5.167087     
     55000   2.8242361      0.31318838     0              3.1303639      5.0300518    
     55500   2.7305476      0.26361506     0              2.9873363      4.8269727    
     56000   2.4823431      0.253216       0              2.7293532      4.5630537    
     56500   2.6601715      0.22329418     0              2.8768153      4.5243264    
     57000   2.7144248      0.26994418     0              2.9775829      4.7719753    
     57500   2.8235181      0.27603133     0              3.0924906      5.0006428    
     58000   2.8578922      0.26025401     0              3.1110015      4.917326     
     58500   2.9986754      0.28064308     0              3.2718218      4.886762     
     59000   2.7324719      0.36387319     0              3.0895139      5.8360406    
     59500   2.8056736      0.2222305      0              3.0208899      4.6228114    
     60000   2.6488323      0.2856802      0              2.9278905      5.0608587    
     60500   2.5639626      0.25738212     0              2.8149348      4.599076     
     61000   2.5279961      0.22586885     0              2.7475449      4.3821575    
     61500   2.408281       0.28156472     0              2.683825       4.8498583    
     62000   2.6808833      0.20857682     0              2.8827579      4.2938098    
     62500   2.6694197      0.26676709     0              2.9295132      4.8313453    
     63000   2.8687375      0.2352406      0              3.0968063      4.4714719    
     63500   2.8638303      0.24920193     0              3.1058726      4.5004485    
     64000   2.7489378      0.26316427     0              3.0052297      4.8036009    
     64500   2.6300732      0.27828868     0              2.9017867      4.9694026    
     65000   2.7559         0.21959598     0              2.9686063      4.5041129    
     65500   2.9243857      0.22229328     0              3.139368       4.5539881    
     66000   2.6652293      0.31505946     0              2.9736256      5.2254517    
     66500   2.5261018      0.2596467      0              2.7794332      4.5506036    
     67000   2.4308861      0.28674153     0              2.7115504      4.9258926    
     67500   2.3757849      0.21074056     0              2.580586       4.2561443    
     68000   2.3272643      0.17853804     0              2.4999841      3.9411821    
     68500   2.3151431      0.22605863     0              2.5354139      4.3725263    
     69000   2.319482       0.29444022     0              2.6081235      4.7940155    
     69500   2.2156506      0.1396089      0              2.3497203      3.3750187    
     70000   2.2501387      0.20901652     0              2.4535298      3.9987439    
     70500   2.332268       0.25623163     0              2.582669       4.5741746    
     71000   2.3014758      0.23083541     0              2.5265575      4.3010607    
     71500   2.2519443      0.18932434     0              2.4356388      3.857701     
     72000   2.1690358      0.19235688     0              2.3559701      3.8077599    
     72500   2.1337369      0.29008317     0              2.4184857      4.6537425    
     73000   2.2810587      0.24451193     0              2.519868       4.4361781    
     73500   2.3246424      0.20491426     0              2.523745       4.1445295    
     74000   2.3500224      0.21727181     0              2.5614192      4.3114972    
     74500   2.2172628      0.299569       0              2.5112886      4.7188641    
     75000   2.4247124      0.26221953     0              2.6808702      4.7042971    
     75500   2.3134847      0.29931261     0              2.6070136      4.9838226    
     76000   2.3341348      0.19963273     0              2.5279322      4.0501528    
     76500   2.252002       0.19640846     0              2.4427804      3.9370759    
     77000   2.0499769      0.19443587     0              2.2392878      3.835985     
     77500   2.1120372      0.22846532     0              2.3352224      3.9229323    
     78000   2.2561925      0.21236383     0              2.4629159      4.0624785    
     78500   2.280739       0.19872135     0              2.4737585      4.0371031    
     79000   2.148004       0.21481389     0              2.3574479      4.1233916    
     79500   2.2196578      0.30709543     0              2.5212041      4.8372937    
     80000   2.1074332      0.30518429     0              2.407349       4.6545136    
     80500   2.2903091      0.17903489     0              2.4636182      3.8803595    
     81000   2.1365718      0.23591646     0              2.3671468      4.2440206    
     81500   2.0421469      0.22191548     0              2.258957       4.2211634    
     82000   2.008869       0.19427519     0              2.198122       3.7868695    
     82500   1.9222527      0.1398613      0              2.0573084      3.1642295    
     83000   1.8391451      0.1641584      0              1.9987056      3.4904496    
     83500   1.9937685      0.13584907     0              2.1246332      3.1787874    
     84000   2.0433921      0.16561499     0              2.2038986      3.3803833    
     84500   2.0730128      0.18716984     0              2.2550001      3.6711212    
     85000   1.9489799      0.25606146     0              2.200169       4.3853133    
     85500   1.8773171      0.18554574     0              2.0581695      3.6836381    
     86000   1.9299356      0.13330536     0              2.0584161      3.0409766    
     86500   1.6935496      0.18228322     0              1.871599       3.4682942    
     87000   1.7742144      0.21862665     0              1.9884055      3.9537173    
     87500   1.8247628      0.24509785     0              2.0652987      3.9894589    
     88000   1.9203582      0.16097322     0              2.0765305      3.3928225    
     88500   2.1401655      0.13501638     0              2.2698315      3.2677203    
     89000   2.1046473      0.17498062     0              2.2743663      3.7833281    
     89500   1.861761       0.19610615     0              2.0532128      3.6381697    
     90000   1.8540406      0.16324828     0              2.0126538      3.4460023    
     90500   1.9076237      0.160423       0              2.0632777      3.4692226    
     91000   1.7762092      0.19865951     0              1.9704282      3.684865     
     91500   1.7198065      0.17272586     0              1.8882328      3.2454157    
     92000   1.6588961      0.16894532     0              1.8236941      3.1670362    
     92500   1.7656056      0.11894293     0              1.8801346      2.7745702    
     93000   1.6948958      0.15800444     0              1.848663       3.249789     
     93500   1.8035091      0.088518896    0              1.8875193      2.4791477    
     94000   1.6876724      0.15815071     0              1.8416039      3.2163356    
     94500   1.5983509      0.14481436     0              1.7391694      3.0479566    
     95000   1.6354931      0.17078566     0              1.80219        3.1876394    
     95500   1.5754922      0.14448535     0              1.7160388      2.8788495    
     96000   1.6841621      0.092420766    0              1.7723725      2.4378633    
     96500   1.6213976      0.10390772     0              1.7212518      2.5982636    
     97000   1.6058112      0.18339664     0              1.7851933      3.2897378    
     97500   1.6620381      0.13146267     0              1.7893456      2.9618682    
     98000   1.7751036      0.13112328     0              1.9017892      2.9879078    
     98500   1.7587549      0.16101177     0              1.9153698      3.2151597    
     99000   1.6534477      0.18195823     0              1.8312723      3.3893275    
     99500   1.5782156      0.15813098     0              1.732401       3.3238518    
    100000   1.5856954      0.14213893     0              1.7238701      2.9590063    
    100500   1.5651281      0.13433518     0              1.6955504      2.836965     
    101000   1.5703369      0.12345764     0              1.6898687      2.6238085    
    101500   1.3887393      0.09377517     0              1.4790426      2.2977869    
    102000   1.4318405      0.099527406    0              1.5277883      2.4562256    
    102500   1.4701043      0.10695494     0              1.573384       2.5945692    
    103000   1.4140417      0.13904405     0              1.5495507      2.8684524    
    103500   1.3799288      0.18928332     0              1.5657623      3.4210877    
    104000   1.457036       0.1181663      0              1.5715597      2.6907838    
    104500   1.5430802      0.11650332     0              1.6557258      2.7650058    
    105000   1.4316618      0.16357043     0              1.5916531      3.1116332    
    105500   1.4311978      0.094283248    0              1.521903       2.4365324    
    106000   1.4382809      0.14131851     0              1.5760037      2.8885769    
    106500   1.4099907      0.09094383     0              1.4974096      2.3314421    
    107000   1.3822684      0.12598779     0              1.5048005      2.6002405    
    107500   1.3487156      0.12830039     0              1.4736442      2.881787     
    108000   1.3657468      0.10700408     0              1.4693365      2.5264851    
    108500   1.3394294      0.094793996    0              1.4308749      2.3156753    
    109000   1.3929552      0.097271691    0              1.4867445      2.3417965    
    109500   1.2992087      0.10874268     0              1.4047033      2.5157926    
    110000   1.3241651      0.094670911    0              1.4155256      2.2116966    
    110500   1.3166412      0.11284094     0              1.4261905      2.6012288    
    111000   1.3180665      0.11885129     0              1.4336226      2.5901476    
    111500   1.2398238      0.11469486     0              1.3514191      2.5108112    
    112000   1.2010725      0.076609832    0              1.2746796      2.0467602    
    112500   1.1702655      0.063656546    0              1.2309964      1.8447668    
    113000   1.1209765      0.083934659    0              1.2021087      2.0451317    
    113500   1.1198013      0.084483334    0              1.2014852      2.0902235    
    114000   1.0753939      0.10130764     0              1.174013       2.22355      
    114500   1.2125149      0.091716493    0              1.3012001      2.2592466    
    115000   1.1728455      0.07980972     0              1.2497231      1.9855842    
    115500   1.1091257      0.11550908     0              1.2218619      2.4375954    
    116000   1.1011778      0.10059736     0              1.1990222      2.3318147    
    116500   1.0761178      0.086043309    0              1.1594708      2.0926921    
    117000   0.93898905     0.081924836    0              1.0185664      1.9533819    
    117500   1.0024806      0.070830838    0              1.0708052      1.9024755    
    118000   0.9947538      0.070369041    0              1.062636       1.9385176    
    118500   1.0161997      0.05158884     0              1.065248       1.6353968    
    119000   0.99073444     0.0773557      0              1.0656133      1.9994555    
    119500   0.9630351      0.061739481    0              1.022367       1.6954689    
    120000   1.0418064      0.080508411    0              1.1197102      2.0532919    
    120500   0.99540793     0.099532749    0              1.0924522      2.0768543    
    121000   0.99562235     0.068488295    0              1.0616216      1.8132299    
    121500   0.98329104     0.061533464    0              1.0423663      1.7860006    
    122000   0.91142762     0.074576166    0              0.98372522     1.8577098    
    122500   0.92444157     0.068236731    0              0.9903672      1.7620883    
    123000   0.88090527     0.073883388    0              0.95258639     1.8116304    
    123500   0.84201137     0.070089566    0              0.90999591     1.7358513    
    124000   0.79644874     0.047616269    0              0.84207389     1.4160433    
    124500   0.80100536     0.065742578    0              0.86474543     1.6890041    
    125000   0.83637312     0.055400501    0              0.88968269     1.5665693    
    125500   0.85759283     0.04449264     0              0.89994149     1.3588879    
    126000   0.84280172     0.054793258    0              0.89548797     1.550634     
    126500   0.784539       0.052916696    0              0.83549435     1.4338019    
    127000   0.7222875      0.046346652    0              0.76682843     1.3397212    
    127500   0.7462381      0.035832502    0              0.780205       1.2175789    
    128000   0.69778669     0.046640827    0              0.74268306     1.2534798    
    128500   0.62705057     0.044223112    0              0.66970606     1.2689699    
    129000   0.66585842     0.053905303    0              0.71809907     1.3604632    
    129500   0.68189004     0.048264502    0              0.72844982     1.3472716    
    130000   0.67978014     0.050977236    0              0.72905793     1.5031535    
    130500   0.67640615     0.046380857    0              0.721096       1.3285653    
    131000   0.64862576     0.047047469    0              0.69405166     1.3309224    
    131500   0.7011481      0.055824477    0              0.75521971     1.4990032    
    132000   0.64763465     0.045585768    0              0.69160133     1.2945813    
    132500   0.63001582     0.054591075    0              0.68303186     1.4370736    
    133000   0.61030584     0.038344456    0              0.64712453     1.2533652    
    133500   0.57751165     0.050993633    0              0.6270615      1.3721351    
    134000   0.54879064     0.022398819    0              0.56981749     0.82765061   
    134500   0.5169968      0.030789198    0              0.54649351     1.0309975    
    135000   0.5135029      0.036190922    0              0.54841006     1.071506     
    135500   0.52509074     0.030989238    0              0.55476726     0.99358979   
    136000   0.54093908     0.021816666    0              0.5614034      0.84494124   
    136500   0.51393226     0.023137521    0              0.53578495     0.85895126   
    137000   0.51509731     0.033955777    0              0.54776535     1.031747     
    137500   0.45701366     0.032637621    0              0.48850875     0.9246694    
    138000   0.44629089     0.021193828    0              0.46636899     0.80234898   
    138500   0.42310177     0.019174198    0              0.44121821     0.81268884   
    139000   0.40699251     0.021096672    0              0.4270717      0.76721398   
    139500   0.40203361     0.017550857    0              0.41857938     0.70878025   
    140000   0.38491119     0.026868988    0              0.4108179      0.91556183   
    140500   0.37596775     0.036857903    0              0.41188573     0.92223775   
    141000   0.38366063     0.012427311    0              0.39512879     0.60556266   
    141500   0.3537708      0.018468411    0              0.37135478     0.6778363    
    142000   0.30780733     0.0214728      0              0.32851061     0.7212175    
    142500   0.30007705     0.013644818    0              0.31297168     0.59626392   
    143000   0.27998432     0.011279419    0              0.29056377     0.44300349   
    143500   0.29334056     0.014503495    0              0.30711071     0.57823557   
    144000   0.28033089     0.015528684    0              0.29515874     0.53052613   
    144500   0.27583247     0.016883046    0              0.29202594     0.62519944   
    145000   0.26839758     0.012370267    0              0.28009685     0.51897059   
    145500   0.24562245     0.013902941    0              0.25891133     0.50359628   
    146000   0.2071166      0.0095141237   0              0.21611294     0.37863025   
    146500   0.18459447     0.0098463309   0              0.19397932     0.44565393   
    147000   0.16936286     0.0062672701   0              0.17520673     0.34271554   
    147500   0.17333937     0.0052104404   0              0.17811646     0.30119065   
    148000   0.16208976     0.007692534    0              0.16937707     0.38231006   
    148500   0.15246542     0.0062091662   0              0.15829342     0.31976384   
    149000   0.12189175     0.004131134    0              0.12571815     0.24699501   
    149500   0.11071342     0.0024770521   0              0.11291369     0.19599142   
    150000   0.097040802    0.0040032846   0              0.10080148     0.23583381   
Loop time of 2.96141 on 64 procs for 100000 steps with 400 atoms

Performance: 29175338.989 tau/day, 33767.753 timesteps/s, 13.507 Matom-step/s
99.5% CPU use with 64 MPI tasks x 1 OpenMP threads

MPI task timing breakdown:
Section |  min time  |  avg time  |  max time  |%varavg| %total
---------------------------------------------------------------
Pair    | 0.014119   | 0.015416   | 0.017157   |   0.5 |  0.52
Neigh   | 0.022841   | 0.023765   | 0.026503   |   0.4 |  0.80
Comm    | 1.1105     | 1.2735     | 1.581      |  10.9 | 43.00
Output  | 0.079169   | 0.079616   | 0.080148   |   0.1 |  2.69
Modify  | 0.48263    | 0.89125    | 1.1337     |  19.0 | 30.10
Other   |            | 0.6779     |            |       | 22.89

Nlocal:           6.25 ave           9 max           4 min
Histogram: 2 0 12 0 26 0 17 0 6 1
Nghost:        14.3594 ave          18 max          11 min
Histogram: 2 7 11 0 15 11 0 12 5 1
Neighs:        7.79688 ave          15 max           2 min
Histogram: 3 4 5 17 13 5 11 2 2 2

Total # of neighbors = 499
Ave neighs/atom = 1.2475
Neighbor list builds = 24668
Dangerous builds = 0
Total wall time: 0:00:04
LAMMPS (15 Sep 2022)
OMP_NUM_THREADS environment is not set. Defaulting to 1 thread. (src/comm.cpp:98)
  using 1 OpenMP thread(s) per MPI task
Lattice spacing in x,y,z = 1.1952286 1.1952286 1.1952286
Created orthogonal box = (0 0 -0.5976143) to (23.904572 23.904572 0.5976143)
  8 by 8 by 1 MPI processor grid
Created 400 atoms
  using lattice units in orthogonal box = (0 0 -0.5976143) to (23.904572 23.904572 0.5976143)
  create_atoms CPU = 0.002 seconds
Generated 0 of 0 mixed pair_coeff terms from geometric mixing rule
Neighbor list info ...
  update: every = 1 steps, delay = 0 steps, check = yes
  max neighbors/atom: 2000, page size: 100000
  master list distance cutoff = 1.3
  ghost atom cutoff = 1.3
  binsize = 0.65, bins = 37 37 2
  1 neighbor lists, perpetual/occasional/extra = 1 0 0
  (1) pair lj/cut, perpetual
      attributes: half, newton on
      pair build: half/bin/atomonly/newton
      stencil: half/bin/2d
      bin: standard
Setting up Verlet run ...
  Unit style    : lj
  Current step  : 0
  Time step     : 0.01
Per MPI rank memory allocation (min/avg/max) = 3.047 | 3.047 | 3.047 Mbytes
   Step          Temp          E_pair         E_mol          TotEng         Press     
         0   3              0              0              2.9925         2.09475      
       500   2.8151869      0.48276632     0              3.2909152      8.287304     
      1000   2.9496762      0.36179245     0              3.3040945      7.279268     
      1500   2.6343858      0.46785217     0              3.095652       7.8922118    
      2000   2.7759932      0.44050577     0              3.209559       7.729285     
      2500   2.9991853      0.34828122     0              3.3399686      7.022397     
      3000   2.7392772      0.39849343     0              3.1309224      7.6499788    
      3500   2.8978019      0.42619915     0              3.3167565      7.9733947    
      4000   3.0655588      0.42641635     0              3.4843113      8.1867863    
      4500   2.9846659      0.45241791     0              3.4296222      7.8704509    
      5000   3.0869169      0.40938285     0              3.4885825      8.1346437    
      5500   3.1430663      0.45528194     0              3.5904906      7.8955407    
      6000   3.1923366      0.58878551     0              3.7731413      9.7639136    
      6500   3.0836189      0.46957783     0              3.5454877      8.3640767    
      7000   3.0496332      0.42103955     0              3.4630487      7.7433964    
      7500   3.0230857      0.49097355     0              3.5065015      8.3751077    
      8000   3.0290871      0.46863124     0              3.4901457      8.4948796    
      8500   3.1475991      0.53156712     0              3.6712973      8.9384812    
      9000   3.0807228      0.43187256     0              3.5048935      7.8753528    
      9500   2.9828105      0.49055396     0              3.4659074      8.5603058    
     10000   3.0050779      0.62256016     0              3.6201254      9.7767629    
     10500   3.1354982      0.46424387     0              3.5919033      8.1673828    
     11000   3.2199843      0.44708238     0              3.6590167      8.153239     
     11500   2.9289153      0.60282277     0              3.5244158      9.3232025    
     12000   3.0594445      0.4847508      0              3.5365467      8.3686674    
     12500   3.1299662      0.43840931     0              3.5605506      8.0820352    
     13000   3.28469        0.41945302     0              3.6959313      8.0247354    
     13500   3.0919547      0.40707299     0              3.4912978      7.6401448    
     14000   2.9411605      0.51118166     0              3.4449893      8.6176634    
     14500   2.9166867      0.46870254     0              3.3780975      8.1200242    
     15000   2.8712141      0.45956053     0              3.3235966      8.0669023    
     15500   2.7737092      0.42607642     0              3.1928513      7.6149303    
     16000   2.9862188      0.34762225     0              3.3263755      6.7836216    
     16500   2.7961513      0.45331133     0              3.2424723      8.0396864    
     17000   2.7054782      0.34828569     0              3.0470002      6.943588     
     17500   2.8485867      0.46613072     0              3.3075959      8.1432291    
     18000   2.9349558      0.40488518     0              3.3325036      7.2780429    
     18500   2.84743        0.44665225     0              3.2869637      8.2027649    
     19000   2.6893192      0.45313231     0              3.1357283      7.7945156    
     19500   2.9615664      0.48035552     0              3.434518       8.1553928    
     20000   3.0580949      0.36210278     0              3.4125524      7.105442     
     20500   2.9733456      0.47467254     0              3.4405848      8.5989965    
     21000   3.0710972      0.40909887     0              3.4725183      8.0147757    
     21500   2.7299896      0.48508687     0              3.2082515      8.2753006    
     22000   3.0283118      0.49841587     0              3.5191569      8.3207924    
     22500   3.1158359      0.44507072     0              3.5531171      8.2839597    
     23000   3.1578074      0.46752635     0              3.6174392      8.5832242    
     23500   3.0485537      0.48767868     0              3.528611       8.3711859    
     24000   3.0719216      0.44489645     0              3.5091382      8.2161408    
     24500   3.3386198      0.39072427     0              3.7209975      7.7245339    
     25000   3.1399215      0.46368048     0              3.5957521      8.2914638    
     25500   3.0879037      0.45102145     0              3.5312054      8.3057493    
     26000   2.9809903      0.50841971     0              3.4819575      8.8480593    
     26500   3.0933693      0.36103159     0              3.4466675      7.3936768    
     27000   3.1282353      0.35472524     0              3.47514        7.2899086    
     27500   2.9733241      0.4132544      0              3.3791452      8.0062231    
     28000   2.856392       0.3231361      0              3.1723871      6.5353455    
     28500   2.5143972      0.509185       0              3.0172962      8.45565      
     29000   2.8624773      0.48477972     0              3.3401008      8.4246331    
     29500   2.8811199      0.52204151     0              3.3959586      8.833948     
     30000   2.8713955      0.45985774     0              3.3240748      7.8872354    
     30500   2.7246191      0.38671671     0              3.1045242      7.4821416    
     31000   2.8012275      0.30292497     0              3.0971494      6.3784592    
     31500   2.8035611      0.47792577     0              3.2744779      8.3896838    
     32000   2.9118413      0.49131682     0              3.3958785      8.4866135    
     32500   2.9446567      0.53883601     0              3.4761311      8.7878988    
     33000   3.1329664      0.44730905     0              3.572443       7.946199     
     33500   3.1459072      0.51158812     0              3.6496306      8.6947172    
     34000   3.1698291      0.43119586     0              3.5931004      8.0103292    
     34500   3.0229556      0.5500942      0              3.5654924      8.8556414    
     35000   3.1667722      0.44959099     0              3.6084463      8.2313552    
     35500   3.0419684      0.54023713     0              3.5746006      9.1371787    
     36000   3.2627065      0.4829989      0              3.7375486      8.7434745    
     36500   3.1523718      0.44582795     0              3.5903188      8.2087555    
     37000   2.925364       0.49398876     0              3.4120393      8.61799      
     37500   2.8578233      0.47418291     0              3.3248616      8.4361431    
     38000   2.7072761      0.46633403     0              3.166842       8.2025179    
     38500   2.9037197      0.42842924     0              3.3248896      7.5121305    
     39000   3.0156989      0.39293471     0              3.4010943      7.4348169    
     39500   2.8367797      0.51775367     0              3.3474414      8.8979398    
     40000   2.779906       0.41126489     0              3.1842211      7.436141     
     40500   2.9685581      0.37156047     0              3.3326972      6.8954292    
     41000   2.8324559      0.43451634     0              3.2598911      8.0675228    
     41500   3.0348         0.361099       0              3.388312       7.0907689    
     42000   2.9755622      0.40772857     0              3.3758519      7.7207499    
     42500   3.1535418      0.3889437      0              3.5346016      7.4695229    
     43000   3.1164611      0.53517586     0              3.6438458      9.1718843    
     43500   3.1558376      0.59031872     0              3.7382668      9.5845302    
     44000   3.130323       0.44561079     0              3.568108       8.1694767    
     44500   3.0028417      0.49623167     0              3.4915663      8.3128945    
     45000   3.2344964      0.44008619     0              3.6664964      7.9989687    
     45500   3.0737033      0.35727758     0              3.4232967      7.3492963    
     46000   2.972401       0.59795863     0              3.5629287      9.4863226    
     46500   3.0252104      0.51268461     0              3.530332       8.6281964    
     47000   3.2653882      0.42298423     0              3.6802089      7.9860913    
     47500   2.9150091      0.52032792     0              3.4280495      8.6704792    
     48000   2.9735823      0.4709628      0              3.4371112      7.8649954    
     48500   2.9095437      0.46137945     0              3.3636493      8.2796087    
     49000   2.9780066      0.43456359     0              3.4051252      8.0407767    
     49500   2.8842209      0.49811778     0              3.3751282      8.3674643    
     50000   2.991364       0.43483362     0              3.4187192      7.6800707    
Loop time of 1.61762 on 64 procs for 50000 steps with 400 atoms

Performance: 26705903.528 tau/day, 30909.611 timesteps/s, 12.364 Matom-step/s
99.5% CPU use with 64 MPI tasks x 1 OpenMP threads

MPI task timing breakdown:
Section |  min time  |  avg time  |  max time  |%varavg| %total
---------------------------------------------------------------
Pair    | 0.008654   | 0.0094584  | 0.010612   |   0.4 |  0.58
Neigh   | 0.016726   | 0.017325   | 0.018905   |   0.3 |  1.07
Comm    | 0.68123    | 0.76714    | 0.93437    |   7.7 | 47.42
Output  | 0.0037676  | 0.0039676  | 0.0052026  |   0.3 |  0.25
Modify  | 0.24605    | 0.47489    | 0.60633    |  14.2 | 29.36
Other   |            | 0.3448     |            |       | 21.32

Nlocal:           6.25 ave           8 max           4 min
Histogram: 4 0 8 0 0 28 0 16 0 8
Nghost:        16.1094 ave          20 max          12 min
Histogram: 1 1 7 13 0 17 13 9 2 1
Neighs:        9.96875 ave          17 max           3 min
Histogram: 2 3 5 15 4 16 6 9 2 2

Total # of neighbors = 638
Ave neighs/atom = 1.595
Neighbor list builds = 16913
Dangerous builds = 0
Generated 0 of 0 mixed pair_coeff terms from geometric mixing rule
Setting up Verlet run ...
  Unit style    : lj
  Current step  : 50000
  Time step     : 0.01
Per MPI rank memory allocation (min/avg/max) = 3.068 | 3.068 | 3.068 Mbytes
   Step          Temp          E_pair         E_mol          TotEng         Press     
     50000   2.991364       0.43483362     0              3.4187192      7.6800707    
     50500   2.916073       0.35350648     0              3.2622893      7.1276787    
     51000   2.8957099      0.48017548     0              3.3686461      8.2776136    
     51500   2.881328       0.35529361     0              3.2294183      7.2676119    
     52000   2.9812425      0.39827874     0              3.3720681      7.6596344    
     52500   3.0651557      0.4050363      0              3.4625291      7.7462044    
     53000   2.9350287      0.46004373     0              3.3877348      7.9324871    
     53500   2.9643955      0.34857109     0              3.3055556      6.9508907    
     54000   2.9523393      0.46460659     0              3.409565       8.2498465    
     54500   3.0543634      0.38842387     0              3.4351513      7.7024741    
     55000   3.0259912      0.48114793     0              3.4995742      8.3906293    
     55500   3.0181232      0.39574206     0              3.4063199      7.5571152    
     56000   2.9122038      0.52302682     0              3.4279501      8.7231173    
     56500   3.0126489      0.36633752     0              3.3714548      7.4864581    
     57000   2.9782713      0.36377669     0              3.3346023      7.2012321    
     57500   2.8033766      0.43928269     0              3.2356508      8.0547286    
     58000   2.9062853      0.4267281      0              3.3257477      7.745432     
     58500   2.631504       0.37432871     0              2.999254       7.0848035    
     59000   2.6853426      0.35408686     0              3.0327161      6.7019008    
     59500   2.6729311      0.3381934      0              3.0044422      6.6793211    
     60000   2.5669358      0.44648961     0              3.007008       7.5350129    
     60500   2.5584263      0.32128892     0              2.8733191      6.6194057    
     61000   2.5209681      0.30557283     0              2.8202385      6.3520532    
     61500   2.6629903      0.40127615     0              3.057609       7.1390316    
     62000   2.6371134      0.42798609     0              3.0585067      7.6356702    
     62500   2.7488466      0.44247053     0              3.184445       7.7230081    
     63000   2.8284034      0.47150859     0              3.292841       8.1481535    
     63500   2.7049342      0.43355124     0              3.1317231      7.7555346    
     64000   2.6668979      0.41059059     0              3.0708212      7.4865461    
     64500   2.8559883      0.3512549      0              3.2001032      7.180649     
     65000   2.6301218      0.37303219     0              2.9965787      7.0058337    
     65500   2.5272796      0.32434742     0              2.8453088      6.5711528    
     66000   2.4191913      0.37645392     0              2.7895972      7.1444402    
     66500   2.3490243      0.39818752     0              2.7413392      7.0742999    
     67000   2.4623329      0.29209536     0              2.7482724      6.0646734    
     67500   2.3000126      0.33137877     0              2.6256414      6.4910939    
     68000   2.4398107      0.2643359      0              2.6980471      5.8981326    
     68500   2.3950151      0.37343907     0              2.7624667      6.8339003    
     69000   2.6190117      0.24417615     0              2.8566403      5.5899106    
     69500   2.4148876      0.44823887     0              2.8570892      7.3164145    
     70000   2.4078362      0.39196071     0              2.7937773      7.1925773    
     70500   2.448475       0.31206201     0              2.7544158      6.380763     
     71000   2.5040449      0.3251327      0              2.8229175      6.4089156    
     71500   2.4001165      0.39099988     0              2.7851161      7.0852242    
     72000   2.3331863      0.4426851      0              2.7700384      7.5780403    
     72500   2.4233413      0.37237488     0              2.7896578      6.9339878    
     73000   2.4263873      0.39599499     0              2.8163164      7.1665867    
     73500   2.3762131      0.49725476     0              2.8675273      8.2866311    
     74000   2.2287553      0.32142825     0              2.5446117      6.3819889    
     74500   2.2864504      0.32563013     0              2.6063644      6.2433293    
     75000   2.2875348      0.32563519     0              2.6074511      6.2075524    
     75500   2.287098       0.32021976     0              2.6016001      6.4589921    
     76000   2.1578469      0.413847       0              2.5662993      7.5117155    
     76500   2.1866522      0.33222712     0              2.5134126      6.2997074    
     77000   1.9944144      0.43005009     0              2.4194785      7.0923851    
     77500   2.1635401      0.33340915     0              2.4915405      6.5400026    
     78000   1.990017       0.39004851     0              2.3750904      6.8039569    
     78500   1.997095       0.2904628      0              2.282565       5.8990685    
     79000   2.0962638      0.28507563     0              2.3760988      5.9749132    
     79500   2.1801256      0.32921319     0              2.5038885      6.3265734    
     80000   2.2956192      0.24341112     0              2.5332912      5.5627725    
     80500   2.1345603      0.32313183     0              2.4523557      6.1919126    
     81000   2.1103878      0.38583721     0              2.490949       6.7262241    
     81500   2.2069744      0.32680352     0              2.5282605      6.2832265    
     82000   2.2563688      0.30384074     0              2.5545686      6.0894369    
     82500   2.1253587      0.26750096     0              2.3875463      5.8357095    
     83000   1.9519478      0.33287665     0              2.2799446      6.2636252    
     83500   2.0187807      0.20638209     0              2.2201158      4.8612899    
     84000   1.9605049      0.24982413     0              2.2054278      5.1727786    
     84500   1.9282938      0.19166746     0              2.1151405      4.686755     
     85000   1.9592738      0.24741904     0              2.2017946      5.4939544    
     85500   1.9129594      0.28481066     0              2.1929877      5.7128235    
     86000   1.9989591      0.22583218     0              2.2197939      5.0103958    
     86500   1.8175684      0.31572183     0              2.1287463      5.7598554    
     87000   1.9098001      0.31733134     0              2.222357       5.9189018    
     87500   1.986326       0.29398234     0              2.2753426      5.9808314    
     88000   1.8504563      0.36703803     0              2.2128682      6.4376107    
     88500   1.8521245      0.34204311     0              2.1895373      6.0146407    
     89000   1.8289977      0.31472861     0              2.1391538      5.9801868    
     89500   2.0737818      0.24708773     0              2.3156851      5.3626225    
     90000   2.0070318      0.26208385     0              2.2640981      5.5421326    
     90500   1.923642       0.26108479     0              2.1799177      5.4119257    
     91000   1.7829399      0.30387141     0              2.082354       5.9901903    
     91500   1.9050603      0.23091594     0              2.1312136      5.1989407    
     92000   1.8182374      0.2171994      0              2.0308912      4.9095715    
     92500   1.7700548      0.28090006     0              2.0465297      5.6038004    
     93000   1.7491558      0.29923386     0              2.0440168      5.6761913    
     93500   1.861634       0.28972077     0              2.1467006      5.7534462    
     94000   1.7911145      0.2158199      0              2.0024566      4.8915463    
     94500   1.6681186      0.2620698      0              1.9260181      5.1343007    
     95000   1.6848775      0.23289455     0              1.9135599      5.1470702    
     95500   1.6368059      0.24045039     0              1.8731643      5.0334062    
     96000   1.7122552      0.20810444     0              1.916079       4.7390533    
     96500   1.6345427      0.26442575     0              1.8948821      5.3725827    
     97000   1.6854871      0.24716679     0              1.9284402      5.0416934    
     97500   1.7579146      0.34152736     0              2.0950472      6.4378441    
     98000   1.7372929      0.18833954     0              1.9212892      4.3443909    
[...]

Performance: 25999364.004 tau/day, 30091.856 timesteps/s, 12.037 Matom-step/s
99.5% CPU use with 64 MPI tasks x 1 OpenMP threads

MPI task timing breakdown:
Section |  min time  |  avg time  |  max time  |%varavg| %total
---------------------------------------------------------------
Pair    | 0.013242   | 0.014502   | 0.016369   |   0.5 |  0.87
Neigh   | 0.01891    | 0.019432   | 0.021008   |   0.3 |  1.17
Comm    | 0.69525    | 0.77422    | 0.92964    |   7.5 | 46.60
Output  | 0.0035698  | 0.0038347  | 0.0050529  |   0.3 |  0.23
Modify  | 0.26845    | 0.50667    | 0.64348    |  14.3 | 30.49
Other   |            | 0.3429     |            |       | 20.64

Nlocal:           6.25 ave           8 max           4 min
Histogram: 3 0 6 0 0 34 0 14 0 7
Nghost:        19.7031 ave          24 max          15 min
Histogram: 1 0 2 9 20 17 4 8 2 1
Neighs:        16.8281 ave          23 max           9 min
Histogram: 3 2 2 6 7 22 5 7 3 7

Total # of neighbors = 1077
Ave neighs/atom = 2.6925
Neighbor list builds = 16899
Dangerous builds = 0
Generated 0 of 0 mixed pair_coeff terms from geometric mixing rule
Setting up Verlet run ...
  Unit style    : lj
  Current step  : 50000
  Time step     : 0.01
Per MPI rank memory allocation (min/avg/max) = 3.068 | 3.068 | 3.068 Mbytes
   Step          Temp          E_pair         E_mol          TotEng         Press     
     50000   2.8269171      1.6815784      0              4.5014282      31.921293    
     50500   2.8952245      1.5417704      0              4.4297568      30.725786    
     51000   2.9643758      1.5163512      0              4.4733161      30.668522    
     51500   3.1721296      1.5742957      0              4.738495       32.178208    
     52000   3.1505371      1.5723959      0              4.7150567      31.500981    
     52500   3.2283529      1.4773423      0              4.6976244      30.32491     
     53000   3.0215442      1.4123931      0              4.4263834      29.516089    
     53500   2.8810468      1.4891012      0              4.3629454      29.894471    
     54000   3.0219156      1.4619763      0              4.4763371      29.7021      
     54500   2.8231578      1.7941846      0              4.6102845      33.19456     
     55000   3.1822263      1.4109948      0              4.5852655      29.462713    
     55500   2.9984979      1.5564852      0              4.5474869      30.696109    
     56000   3.0755386      1.3535555      0              4.4214053      28.1631      
     56500   2.8296873      1.542233       0              4.364846       29.744133    
     57000   2.8130444      1.4648999      0              4.2709116      29.104267    
     57500   2.6376968      1.6485042      0              4.2796068      32.423959    
     58000   2.9325391      1.3942088      0              4.3194166      29.004278    
     58500   2.7832243      1.2193644      0              3.9956306      26.476526    
     59000   2.4914152      1.5166927      0              4.0018794      30.3178      
     59500   2.7015681      1.2641669      0              3.958981       27.215024    
     60000   2.6949848      1.2187267      0              3.906974       26.498784    
     60500   2.5538477      1.2960767      0              3.8435398      27.324506    
     61000   2.5755358      1.4122423      0              3.9813392      28.354635    
     61500   2.853913       1.2906757      0              4.137454       27.667983    
     62000   2.7588569      1.3094821      0              4.0614419      27.230892    
     62500   2.7034934      1.3559712      0              4.0527059      28.059374    
     63000   2.5109548      1.1909326      0              3.69561        26.036297    
     63500   2.4015787      1.3818045      0              3.7773792      28.193329    
     64000   2.6105501      1.2503102      0              3.8543338      26.841738    
     64500   2.6569155      1.286267       0              3.9365402      26.763978    
     65000   2.888602       1.2368074      0              4.1181879      26.578911    
     65500   2.717436       1.258992       0              3.9696344      27.117954    
     66000   2.6560178      1.4264849      0              4.0758626      28.804893    
     66500   2.4904032      1.3012943      0              3.7854715      27.787708    
     67000   2.719902       1.1996039      0              3.9127061      25.801643    
     67500   2.6124218      1.2599268      0              3.8658175      26.76291     
     68000   2.3727572      1.3079324      0              3.6747578      27.298563    
     68500   2.3346911      1.322992       0              3.6518463      27.860185    
     69000   2.5506625      1.0622181      0              3.606504       24.170407    
     69500   2.4347915      1.1290842      0              3.5577888      24.916087    
     70000   2.5335865      1.1249251      0              3.6521776      24.888974    
     70500   2.5869045      1.3426111      0              3.9230483      27.705372    
     71000   2.5463801      1.2677217      0              3.8077358      27.30321     
     71500   2.3954931      1.3630446      0              3.752549       27.8048      
     72000   2.4370156      1.1872446      0              3.6181677      25.83828     
     72500   2.4640094      1.1872018      0              3.6450512      25.567848    
     73000   2.2055741      1.1279216      0              3.3279817      24.921701    
     73500   2.1339318      1.113524       0              3.242121       24.221012    
     74000   2.2634735      1.1561596      0              3.4139744      25.280575    
     74500   2.3362395      1.161207       0              3.4916059      25.269476    
     75000   2.3578677      1.1919704      0              3.5439435      25.949326    
     75500   2.1964283      1.076838       0              3.2677752      23.746848    
     76000   2.1440687      1.1491334      0              3.287842       24.688833    
     76500   2.1309452      1.0680231      0              3.193641       23.476516    
     77000   2.1660686      1.1594234      0              3.3200769      25.551299    
     77500   2.3799031      1.1166513      0              3.4906046      24.444991    
     78000   2.3223453      1.0767141      0              3.3932536      24.042952    
     78500   2.3292031      1.0059515      0              3.3293316      23.270215    
     79000   2.3020479      0.98215185     0              3.2784446      22.705999    
     79500   2.2944897      0.97505143     0              3.2638049      22.556104    
     80000   2.3179054      1.080842       0              3.3929527      24.05064     
     80500   2.0897265      1.0523085      0              3.1368107      23.728574    
     81000   2.0181541      0.9497588      0              2.9628675      22.017967    
     81500   2.1279328      0.90055877     0              3.0231718      20.679418    
     82000   1.959929       0.98505861     0              2.9400878      22.229377    
     82500   2.0187172      0.80706155     0              2.820732       18.98335     
     83000   1.8581161      0.87910226     0              2.7325731      20.611432    
     83500   1.8147403      0.89674336     0              2.7069468      20.369589    
     84000   1.8142002      0.97832326     0              2.787988       21.736413    
     84500   1.9390381      1.0402412      0              2.9744317      22.540016    
     85000   2.0932933      0.95319307     0              3.0412532      22.117901    
     85500   2.0039169      0.89548811     0              2.8943952      20.425298    
     86000   1.9692334      0.91267159     0              2.8769819      21.244943    
     86500   2.0263077      0.93224431     0              2.9534862      20.872581    
     87000   1.9284494      0.86529683     0              2.7889251      20.142647    
     87500   2.0874332      0.72793847     0              2.810153       17.958136    
     88000   1.8617727      0.9223283      0              2.7794465      20.6202      
     88500   1.8209425      0.75363219     0              2.5700224      17.738613    
     89000   1.8976132      0.7328434      0              2.6257125      17.774554    
     89500   1.7643689      0.78260811     0              2.5425661      18.670239    
     90000   1.7645264      0.7183348      0              2.4784499      18.411131    
     90500   1.6992979      0.78739871     0              2.4824483      19.23737     
     91000   1.7108583      0.65140685     0              2.357988       16.656584    
     91500   1.6585896      0.81724444     0              2.4716875      19.318536    
     92000   1.7431865      0.71756633     0              2.4563949      17.270589    
     92500   1.9777675      0.97922466     0              2.9520477      22.479903    
     93000   1.7832922      0.81578045     0              2.5946144      19.197877    
     93500   1.7622895      0.75343563     0              2.5113194      19.106745    
     94000   1.6929758      0.73991137     0              2.4286548      17.938241    
     94500   1.7208582      0.69051623     0              2.4070723      17.731636    
     95000   1.6474643      0.73002093     0              2.3733665      18.53485     
     95500   1.5590512      0.7225712      0              2.2777248      17.607472    
     96000   1.528559       0.66120406     0              2.1859417      17.166345    
     96500   1.5494613      0.8151594      0              2.3607471      19.23045     
     97000   1.6397205      0.74012581     0              2.375747       18.946298    
     97500   1.5601646      0.84240614     0              2.3986704      19.205372    
     98000   1.6903591      0.74998905     0              2.4361223      18.434974    
     98500   1.6262797      0.81930265     0              2.4415167      19.403449    
     99000   1.5782714      0.59448472     0              2.1688104      16.014712    
     99500   1.5894218      0.5682128      0              2.153661       15.092365    
    100000   1.6194047      0.61877027     0              2.2341265      15.973549    
    100500   1.5948373      0.7559143      0              2.3467646      18.287841    
    101000   1.6033292      0.64357155     0              2.2428924      16.595779    
    101500   1.5072279      0.63555326     0              2.1390131      16.044699    
    102000   1.5465958      0.60135053     0              2.1440799      15.486311    
    102500   1.5110649      0.65714043     0              2.1644277      16.098446    
    103000   1.3755865      0.50811727     0              1.8802648      13.860444    
    103500   1.378997       0.57543337     0              1.9509829      15.216307    
    104000   1.4043773      0.5537999      0              1.9546663      14.301624    
    104500   1.3312602      0.63549621     0              1.9634283      15.750494    
    105000   1.438574       0.57740553     0              2.0123831      15.725373    
    105500   1.3774189      0.62358661     0              1.9975619      16.040828    
    106000   1.4545551      0.59098525     0              2.041904       15.381582    
    106500   1.485496       0.6142282      0              2.0960105      16.033419    
    107000   1.3526663      0.62253143     0              1.9718161      15.795097    
    107500   1.3575785      0.59692879     0              1.9511134      15.966968    
    108000   1.4095381      0.49283827     0              1.8988525      13.425012    
    108500   1.3100015      0.5112007      0              1.8179272      13.704484    
    109000   1.328905       0.46630772     0              1.7918905      13.304149    
    109500   1.2851643      0.40067508     0              1.6826265      11.72252     
    110000   1.2209246      0.46509027     0              1.6829626      12.799249    
    110500   1.261195       0.44439405     0              1.702436       13.038478    
    111000   1.2462502      0.41096248     0              1.654097       11.850256    
    111500   1.1611594      0.43371977     0              1.5919763      12.585285    
    112000   1.1602921      0.41640096     0              1.5737924      11.850655    
    112500   1.1100064      0.39190162     0              1.499133       11.41469     
    113000   1.0921757      0.48058327     0              1.5700285      13.033511    
    113500   1.1804971      0.42212263     0              1.5996685      12.52848     
    114000   1.1576051      0.40257431     0              1.5572854      12.418374    
    114500   1.0653252      0.41993156     0              1.4825935      12.349734    
    115000   1.0146961      0.43587558     0              1.448035       12.447021    
    115500   1.1082712      0.39189406     0              1.4973946      11.809204    
    116000   0.97958721     0.43253955     0              1.4096778      12.255777    
    116500   1.014406       0.41428955     0              1.4261595      12.033849    
    117000   1.0280749      0.40150903     0              1.4270137      11.864514    
    117500   1.0321281      0.40087298     0              1.4304208      12.083737    
    118000   1.1408129      0.38745301     0              1.5254139      11.593225    
    118500   1.071888       0.38599643     0              1.4552047      11.590187    
    119000   0.98502295     0.43154562     0              1.414106       12.082393    
    119500   0.99808531     0.39676948     0              1.3923596      11.834353    
    120000   0.94864754     0.41693021     0              1.3632061      12.116617    
    120500   1.0697321      0.31170165     0              1.3787594      9.9434287    
    121000   0.97391057     0.37739004     0              1.3488658      11.003451    
    121500   0.91208913     0.36886886     0              1.2786778      10.830936    
    122000   0.9622129      0.37107384     0              1.3308812      11.30228     
    122500   0.92454924     0.27201186     0              1.1942497      8.966396     
    123000   0.80583103     0.32922129     0              1.1330377      10.363411    
    123500   0.83222542     0.3256808      0              1.1558257      10.020814    
    124000   0.83669668     0.2636967      0              1.0983016      8.6537348    
    124500   0.82104886     0.27725006     0              1.0962463      9.1431868    
    125000   0.81961658     0.23936513     0              1.0569327      8.4468145    
    125500   0.70433626     0.24934534     0              0.95192076     8.1006106    
    126000   0.81841125     0.2281929      0              1.0445581      7.9046481    
    126500   0.79995376     0.24247765     0              1.0404315      8.4232423    
    127000   0.77430669     0.27610586     0              1.0484768      8.5687721    
    127500   0.76938395     0.30470757     0              1.0721681      9.4718847    
    128000   0.76186282     0.31884523     0              1.0788034      9.7173981    
    128500   0.76213937     0.23116979     0              0.99140381     8.1590049    
    129000   0.7021107      0.27375186     0              0.97410727     8.7828262    
    129500   0.68994223     0.27472554     0              0.96294292     8.6799122    
    130000   0.69520316     0.22349633     0              0.91696148     7.8146566    
    130500   0.69805682     0.23857743     0              0.9348891      8.2160585    
    131000   0.760913       0.22023298     0              0.97924369     7.7734529    
    131500   0.65377582     0.17663258     0              0.82877395     6.6037012    
    132000   0.61235068     0.1953682      0              0.806188       6.9171156    
    132500   0.63496543     0.14154761     0              0.77492563     5.8640225    
    133000   0.58332217     0.20484523     0              0.7867091      7.3014483    
    133500   0.55536814     0.20415486     0              0.75813457     7.1240464    
    134000   0.51369567     0.18455565     0              0.69696707     6.8249211    
    134500   0.52918577     0.15003591     0              0.67789872     5.9031745    
    135000   0.49876726     0.16899518     0              0.66651553     6.3455314    
    135500   0.50171308     0.15435724     0              0.65481604     6.2022074    
    136000   0.47015677     0.16296873     0              0.63195011     6.1147123    
    136500   0.4791416      0.15452966     0              0.63247341     5.8980052    
    137000   0.46615264     0.14072389     0              0.60571114     5.7276486    
    137500   0.45771532     0.12687808     0              0.58344911     5.5360344    
    138000   0.42930113     0.14537418     0              0.57360206     5.6091105    
    138500   0.44247073     0.11319226     0              0.55455681     4.8215368    
    139000   0.41805627     0.12136063     0              0.53837176     5.0709201    
    139500   0.39069205     0.12663788     0              0.51635319     5.2386008    
    140000   0.3815027      0.10103722     0              0.48158616     4.5015363    
    140500   0.37911384     0.09502294     0              0.47318899     4.4247354    
    141000   0.36533437     0.10438709     0              0.46880813     4.7223896    
    141500   0.36557157     0.085333709    0              0.44999135     4.1082582    
    142000   0.33377376     0.087361388    0              0.42030071     4.2357252    
    142500   0.32354683     0.081028699    0              0.40376667     3.7797387    
    143000   0.29805084     0.078687076    0              0.37599279     3.5932619    
    143500   0.29096449     0.083589124    0              0.3738262      3.9316366    
    144000   0.25728764     0.079804604    0              0.33644903     3.8495204    
    144500   0.25135993     0.052137871    0              0.3028694      2.7566543    
    145000   0.2482292      0.040832075    0              0.2884407      2.4751089    
    145500   0.22755791     0.050835516    0              0.27782453     2.911423     
    146000   0.21546102     0.050242761    0              0.26516512     2.8698178    
    146500   0.21215539     0.039814548    0              0.25143955     2.3560796    
    147000   0.18676408     0.047778302    0              0.23407548     2.6763157    
    147500   0.18176056     0.032324786    0              0.21363094     2.1040891    
    148000   0.16495056     0.032317401    0              0.19685559     2.1126       
    148500   0.13405941     0.02663767     0              0.16036193     1.8372206    
    149000   0.12731583     0.0269068      0              0.15390434     1.8370224    
    149500   0.11260162     0.022948699    0              0.13526881     1.6601564    
    150000   0.098940826    0.016626905    0              0.11532038     1.2919861    
Loop time of 3.01522 on 64 procs for 100000 steps with 400 atoms

Performance: 28654657.035 tau/day, 33165.112 timesteps/s, 13.266 Matom-step/s
99.5% CPU use with 64 MPI tasks x 1 OpenMP threads

MPI task timing breakdown:
Section |  min time  |  avg time  |  max time  |%varavg| %total
---------------------------------------------------------------
Pair    | 0.024142   | 0.026694   | 0.030113   |   0.7 |  0.89
Neigh   | 0.026185   | 0.026903   | 0.029223   |   0.3 |  0.89
Comm    | 1.1326     | 1.2954     | 1.6329     |  12.0 | 42.96
Output  | 0.083232   | 0.083806   | 0.084357   |   0.1 |  2.78
Modify  | 0.43996    | 0.90428    | 1.1736     |  21.2 | 29.99
Other   |            | 0.6781     |            |       | 22.49

Nlocal:           6.25 ave           8 max           4 min
Histogram: 3 0 10 0 0 22 0 26 0 3
Nghost:        19.7812 ave          23 max          17 min
Histogram: 2 10 0 12 0 21 15 0 3 1
Neighs:        18.2031 ave          25 max           9 min
Histogram: 2 1 1 10 5 13 16 4 10 2

Total # of neighbors = 1165
Ave neighs/atom = 2.9125
Neighbor list builds = 23945
Dangerous builds = 0
Total wall time: 0:00:04
