LAMMPS (15 Sep 2022)
OMP_NUM_THREADS environment is not set. Defaulting to 1 thread. (src/comm.cpp:98)
  using 1 OpenMP thread(s) per MPI task
Reading restart file ...
  restart file = 15 Sep 2022, LAMMPS = 15 Sep 2022
WARNING: Restart file used different # of processors: 48 vs. 64 (src/read_restart.cpp:659)
  restoring atom style atomic from restart
  orthogonal box = (0 0 0) to (6.6943295 6.6943295 6.6943295)
  4 by 4 by 4 MPI processor grid
  restoring pair style lj/cut from restart
  360 atoms
  read_restart CPU = 0.033 seconds
Setting up equilibration run
ERROR on proc 1: Substitution for illegal variable neighborstep (src/input.cpp:650)
Last command: neigh_modify every 1 delay ${neighborstep} check yes
ERROR on proc 2: Substitution for illegal variable neighborstep (src/input.cpp:650)
Last command: neigh_modify every 1 delay ${neighborstep} check yes
ERROR on proc 3: Substitution for illegal variable neighborstep (src/input.cpp:650)
Last command: neigh_modify every 1 delay ${neighborstep} check yes
ERROR on proc 4: Substitution for illegal variable neighborstep (src/input.cpp:650)
Last command: neigh_modify every 1 delay ${neighborstep} check yes
ERROR on proc 5: Substitution for illegal variable neighborstep (src/input.cpp:650)
Last command: neigh_modify every 1 delay ${neighborstep} check yes
ERROR on proc 6: Substitution for illegal variable neighborstep (src/input.cpp:650)
Last command: neigh_modify every 1 delay ${neighborstep} check yes
ERROR on proc 7: Substitution for illegal variable neighborstep (src/input.cpp:650)
Last command: neigh_modify every 1 delay ${neighborstep} check yes
ERROR on proc 0: Substitution for illegal variable neighborstep (src/input.cpp:650)
Last command: neigh_modify every 1 delay ${neighborstep} check yes
ERROR on proc 32: Substitution for illegal variable neighborstep (src/input.cpp:650)
Last command: neigh_modify every 1 delay ${neighborstep} check yes
ERROR on proc 48: Substitution for illegal variable neighborstep (src/input.cpp:650)
Last command: neigh_modify every 1 delay ${neighborstep} check yes
ERROR on proc 16: Substitution for illegal variable neighborstep (src/input.cpp:650)
Last command: neigh_modify every 1 delay ${neighborstep} check yes
ERROR on proc 33: Substitution for illegal variable neighborstep (src/input.cpp:650)
Last command: neigh_modify every 1 delay ${neighborstep} check yes
ERROR on proc 49: Substitution for illegal variable neighborstep (src/input.cpp:650)
Last command: neigh_modify every 1 delay ${neighborstep} check yes
ERROR on proc 17: Substitution for illegal variable neighborstep (src/input.cpp:650)
Last command: neigh_modify every 1 delay ${neighborstep} check yes
ERROR on proc 34: Substitution for illegal variable neighborstep (src/input.cpp:650)
Last command: neigh_modify every 1 delay ${neighborstep} check yes
ERROR on proc 8: Substitution for illegal variable neighborstep (src/input.cpp:650)
Last command: neigh_modify every 1 delay ${neighborstep} check yes
ERROR on proc 56: Substitution for illegal variable neighborstep (src/input.cpp:650)
Last command: neigh_modify every 1 delay ${neighborstep} check yes
ERROR on proc 50: Substitution for illegal variable neighborstep (src/input.cpp:650)
Last command: neigh_modify every 1 delay ${neighborstep} check yes
ERROR on proc 40: Substitution for illegal variable neighborstep (src/input.cpp:650)
Last command: neigh_modify every 1 delay ${neighborstep} check yes
ERROR on proc 18: Substitution for illegal variable neighborstep (src/input.cpp:650)
Last command: neigh_modify every 1 delay ${neighborstep} check yes
ERROR on proc 35: Substitution for illegal variable neighborstep (src/input.cpp:650)
Last command: neigh_modify every 1 delay ${neighborstep} check yes
ERROR on proc 9: Substitution for illegal variable neighborstep (src/input.cpp:650)
Last command: neigh_modify every 1 delay ${neighborstep} check yes
ERROR on proc 57: Substitution for illegal variable neighborstep (src/input.cpp:650)
Last command: neigh_modify every 1 delay ${neighborstep} check yes
ERROR on proc 51: Substitution for illegal variable neighborstep (src/input.cpp:650)
Last command: neigh_modify every 1 delay ${neighborstep} check yes
ERROR on proc 24: Substitution for illegal variable neighborstep (src/input.cpp:650)
Last command: neigh_modify every 1 delay ${neighborstep} check yes
ERROR on proc 41: Substitution for illegal variable neighborstep (src/input.cpp:650)
Last command: neigh_modify every 1 delay ${neighborstep} check yes
--------------------------------------------------------------------------
MPI_ABORT was invoked on rank 2 in communicator MPI_COMM_WORLD
with errorcode 1.

NOTE: invoking MPI_ABORT causes Open MPI to kill all MPI processes.
You may or may not see output from other processes, depending on
exactly when Open MPI kills them.
--------------------------------------------------------------------------
ERROR on proc 19: Substitution for illegal variable neighborstep (src/input.cpp:650)
Last command: neigh_modify every 1 delay ${neighborstep} check yes
ERROR on proc 36: Substitution for illegal variable neighborstep (src/input.cpp:650)
Last command: neigh_modify every 1 delay ${neighborstep} check yes
ERROR on proc 10: Substitution for illegal variable neighborstep (src/input.cpp:650)
Last command: neigh_modify every 1 delay ${neighborstep} check yes
ERROR on proc 58: Substitution for illegal variable neighborstep (src/input.cpp:650)
Last command: neigh_modify every 1 delay ${neighborstep} check yes
ERROR on proc 52: Substitution for illegal variable neighborstep (src/input.cpp:650)
Last command: neigh_modify every 1 delay ${neighborstep} check yes
ERROR on proc 25: Substitution for illegal variable neighborstep (src/input.cpp:650)
Last command: neigh_modify every 1 delay ${neighborstep} check yes
ERROR on proc 42: Substitution for illegal variable neighborstep (src/input.cpp:650)
Last command: neigh_modify every 1 delay ${neighborstep} check yes
ERROR on proc 20: Substitution for illegal variable neighborstep (src/input.cpp:650)
Last command: neigh_modify every 1 delay ${neighborstep} check yes
ERROR on proc 37: Substitution for illegal variable neighborstep (src/input.cpp:650)
Last command: neigh_modify every 1 delay ${neighborstep} check yes
ERROR on proc 11: Substitution for illegal variable neighborstep (src/input.cpp:650)
Last command: neigh_modify every 1 delay ${neighborstep} check yes
ERROR on proc 59: Substitution for illegal variable neighborstep (src/input.cpp:650)
Last command: neigh_modify every 1 delay ${neighborstep} check yes
ERROR on proc 53: Substitution for illegal variable neighborstep (src/input.cpp:650)
Last command: neigh_modify every 1 delay ${neighborstep} check yes
ERROR on proc 26: Substitution for illegal variable neighborstep (src/input.cpp:650)
Last command: neigh_modify every 1 delay ${neighborstep} check yes
ERROR on proc 43: Substitution for illegal variable neighborstep (src/input.cpp:650)
Last command: neigh_modify every 1 delay ${neighborstep} check yes
ERROR on proc 21: Substitution for illegal variable neighborstep (src/input.cpp:650)
Last command: neigh_modify every 1 delay ${neighborstep} check yes
ERROR on proc 38: Substitution for illegal variable neighborstep (src/input.cpp:650)
Last command: neigh_modify every 1 delay ${neighborstep} check yes
ERROR on proc 12: Substitution for illegal variable neighborstep (src/input.cpp:650)
Last command: neigh_modify every 1 delay ${neighborstep} check yes
ERROR on proc 60: Substitution for illegal variable neighborstep (src/input.cpp:650)
Last command: neigh_modify every 1 delay ${neighborstep} check yes
ERROR on proc 54: Substitution for illegal variable neighborstep (src/input.cpp:650)
Last command: neigh_modify every 1 delay ${neighborstep} check yes
ERROR on proc 27: Substitution for illegal variable neighborstep (src/input.cpp:650)
Last command: neigh_modify every 1 delay ${neighborstep} check yes
ERROR on proc 44: Substitution for illegal variable neighborstep (src/input.cpp:650)
Last command: neigh_modify every 1 delay ${neighborstep} check yes
ERROR on proc 22: Substitution for illegal variable neighborstep (src/input.cpp:650)
Last command: neigh_modify every 1 delay ${neighborstep} check yes
ERROR on proc 39: Substitution for illegal variable neighborstep (src/input.cpp:650)
Last command: neigh_modify every 1 delay ${neighborstep} check yes
ERROR on proc 13: Substitution for illegal variable neighborstep (src/input.cpp:650)
Last command: neigh_modify every 1 delay ${neighborstep} check yes
ERROR on proc 61: Substitution for illegal variable neighborstep (src/input.cpp:650)
Last command: neigh_modify every 1 delay ${neighborstep} check yes
ERROR on proc 55: Substitution for illegal variable neighborstep (src/input.cpp:650)
Last command: neigh_modify every 1 delay ${neighborstep} check yes
ERROR on proc 28: Substitution for illegal variable neighborstep (src/input.cpp:650)
Last command: neigh_modify every 1 delay ${neighborstep} check yes
ERROR on proc 45: Substitution for illegal variable neighborstep (src/input.cpp:650)
Last command: neigh_modify every 1 delay ${neighborstep} check yes
ERROR on proc 23: Substitution for illegal variable neighborstep (src/input.cpp:650)
Last command: neigh_modify every 1 delay ${neighborstep} check yes
ERROR on proc 14: Substitution for illegal variable neighborstep (src/input.cpp:650)
Last command: neigh_modify every 1 delay ${neighborstep} check yes
ERROR on proc 62: Substitution for illegal variable neighborstep (src/input.cpp:650)
Last command: neigh_modify every 1 delay ${neighborstep} check yes
ERROR on proc 29: Substitution for illegal variable neighborstep (src/input.cpp:650)
Last command: neigh_modify every 1 delay ${neighborstep} check yes
ERROR on proc 46: Substitution for illegal variable neighborstep (src/input.cpp:650)
Last command: neigh_modify every 1 delay ${neighborstep} check yes
ERROR on proc 15: Substitution for illegal variable neighborstep (src/input.cpp:650)
Last command: neigh_modify every 1 delay ${neighborstep} check yes
ERROR on proc 63: Substitution for illegal variable neighborstep (src/input.cpp:650)
Last command: neigh_modify every 1 delay ${neighborstep} check yes
ERROR on proc 30: Substitution for illegal variable neighborstep (src/input.cpp:650)
Last command: neigh_modify every 1 delay ${neighborstep} check yes
ERROR on proc 47: Substitution for illegal variable neighborstep (src/input.cpp:650)
Last command: neigh_modify every 1 delay ${neighborstep} check yes
ERROR on proc 31: Substitution for illegal variable neighborstep (src/input.cpp:650)
Last command: neigh_modify every 1 delay ${neighborstep} check yes
[cs092.hpc.nyu.edu:3314277] PMIX ERROR: UNREACHABLE in file server/pmix_server.c at line 2193
[cs092.hpc.nyu.edu:3314277] PMIX ERROR: UNREACHABLE in file server/pmix_server.c at line 2193
[cs092.hpc.nyu.edu:3314277] PMIX ERROR: UNREACHABLE in file server/pmix_server.c at line 2193
[cs092.hpc.nyu.edu:3314277] PMIX ERROR: UNREACHABLE in file server/pmix_server.c at line 2193
[cs092.hpc.nyu.edu:3314277] PMIX ERROR: UNREACHABLE in file server/pmix_server.c at line 2193
[cs092.hpc.nyu.edu:3314277] PMIX ERROR: UNREACHABLE in file server/pmix_server.c at line 2193
[cs092.hpc.nyu.edu:3314277] PMIX ERROR: UNREACHABLE in file server/pmix_server.c at line 2193
[cs092.hpc.nyu.edu:3314277] PMIX ERROR: UNREACHABLE in file server/pmix_server.c at line 2193
[cs092.hpc.nyu.edu:3314277] 63 more processes have sent help message help-mpi-api.txt / mpi-abort
[cs092.hpc.nyu.edu:3314277] Set MCA parameter "orte_base_help_aggregate" to 0 to see all help / error messages
LAMMPS (15 Sep 2022)
OMP_NUM_THREADS environment is not set. Defaulting to 1 thread. (src/comm.cpp:98)
  using 1 OpenMP thread(s) per MPI task
Reading restart file ...
  restart file = 15 Sep 2022, LAMMPS = 15 Sep 2022
WARNING: Restart file used different # of processors: 48 vs. 64 (src/read_restart.cpp:659)
  restoring atom style atomic from restart
  orthogonal box = (0 0 0) to (6.6943295 6.6943295 6.6943295)
  4 by 4 by 4 MPI processor grid
  restoring pair style lj/cut from restart
  360 atoms
  read_restart CPU = 0.017 seconds
Setting up equilibration run
Resetting global fix info from restart file:
  fix style: nvt, fix ID: 1
Generated 0 of 1 mixed pair_coeff terms from geometric mixing rule
All restart file global fix info was re-assigned
Neighbor list info ...
  update: every = 1 steps, delay = 20 steps, check = yes
  max neighbors/atom: 2000, page size: 100000
  master list distance cutoff = 3
  ghost atom cutoff = 3
  binsize = 1.5, bins = 5 5 5
  1 neighbor lists, perpetual/occasional/extra = 1 0 0
  (1) pair lj/cut, perpetual
      attributes: half, newton on
      pair build: half/bin/atomonly/newton
      stencil: half/bin/3d
      bin: standard
Setting up Verlet run ...
  Unit style    : lj
  Current step  : 0
  Time step     : 0.002
Per MPI rank memory allocation (min/avg/max) = 2.981 | 2.981 | 2.981 Mbytes
   Step          Temp          E_pair         E_mol          TotEng         Press     
         0   1.4844082     -5.2675431      0             -3.0471158      15.002443    
      1000   1.5123906     -5.0802917      0             -2.8180075      16.08656     
      2000   1.6289559     -5.3524245      0             -2.9157779      14.849547    
      2500   1.5234433     -5.3981429      0             -3.1193256      14.191433    
Loop time of 0.30586 on 64 procs for 2500 steps with 360 atoms

Performance: 1412412.099 tau/day, 8173.681 timesteps/s, 2.943 Matom-step/s
99.3% CPU use with 64 MPI tasks x 1 OpenMP threads

MPI task timing breakdown:
Section |  min time  |  avg time  |  max time  |%varavg| %total
---------------------------------------------------------------
Pair    | 0.0052892  | 0.0062481  | 0.0073269  |   0.6 |  2.04
Neigh   | 0.0011457  | 0.0012977  | 0.0014741  |   0.2 |  0.42
Comm    | 0.1398     | 0.1705     | 0.20035    |   4.1 | 55.74
Output  | 0.03493    | 0.0741     | 0.12226    |   9.6 | 24.23
Modify  | 0.023294   | 0.031652   | 0.035787   |   1.8 | 10.35
Other   |            | 0.02206    |            |       |  7.21

Nlocal:          5.625 ave           8 max           3 min
Histogram: 2 0 10 0 18 0 17 0 14 3
Nghost:        538.016 ave         553 max         524 min
Histogram: 2 8 5 11 7 11 6 9 3 2
Neighs:        322.938 ave         488 max         175 min
Histogram: 3 3 9 12 7 13 6 7 1 3

Total # of neighbors = 20668
Ave neighs/atom = 57.411111
Neighbor list builds = 84
Dangerous builds = 0
Total wall time: 0:00:00
LAMMPS (15 Sep 2022)
OMP_NUM_THREADS environment is not set. Defaulting to 1 thread. (src/comm.cpp:98)
  using 1 OpenMP thread(s) per MPI task
Reading restart file ...
  restart file = 15 Sep 2022, LAMMPS = 15 Sep 2022
WARNING: Restart file used different # of processors: 48 vs. 64 (src/read_restart.cpp:659)
  restoring atom style atomic from restart
  orthogonal box = (0 0 0) to (6.6943295 6.6943295 6.6943295)
  4 by 4 by 4 MPI processor grid
  restoring pair style lj/cut from restart
  360 atoms
  read_restart CPU = 0.024 seconds
Setting up equilibration run
Resetting global fix info from restart file:
  fix style: nvt, fix ID: 1
Generated 0 of 1 mixed pair_coeff terms from geometric mixing rule
All restart file global fix info was re-assigned
Neighbor list info ...
  update: every = 1 steps, delay = 20 steps, check = yes
  max neighbors/atom: 2000, page size: 100000
  master list distance cutoff = 3
  ghost atom cutoff = 3
  binsize = 1.5, bins = 5 5 5
  1 neighbor lists, perpetual/occasional/extra = 1 0 0
  (1) pair lj/cut, perpetual
      attributes: half, newton on
      pair build: half/bin/atomonly/newton
      stencil: half/bin/3d
      bin: standard
Setting up Verlet run ...
  Unit style    : lj
  Current step  : 0
  Time step     : 0.002
Per MPI rank memory allocation (min/avg/max) = 2.981 | 2.981 | 2.981 Mbytes
   Step          Temp          E_pair         E_mol          TotEng         Press     
         0   0.94158746    -6.0404593      0             -4.6320014      9.5842499    
      2000   1.0060435     -5.9572366      0             -4.4523631      10.192476    
      4000   0.95883418    -6.0346589      0             -4.6004028      9.6578631    
      6000   0.95673881    -5.9285347      0             -4.4974129      10.413741    
      8000   1.0773951     -5.9797502      0             -4.3681467      10.276525    
     10000   1.0057541     -6.0798228      0             -4.5753823      9.3713284    
     12000   1.0486477     -5.9505932      0             -4.3819911      10.296748    
     12500   0.97098528    -6.0501533      0             -4.5977212      9.7160144    
Loop time of 0.893618 on 64 procs for 12500 steps with 360 atoms

Performance: 2417139.711 tau/day, 13988.077 timesteps/s, 5.036 Matom-step/s
99.5% CPU use with 64 MPI tasks x 1 OpenMP threads

MPI task timing breakdown:
Section |  min time  |  avg time  |  max time  |%varavg| %total
---------------------------------------------------------------
Pair    | 0.027269   | 0.030637   | 0.035279   |   1.1 |  3.43
Neigh   | 0.0047316  | 0.005152   | 0.0057124  |   0.3 |  0.58
Comm    | 0.54984    | 0.58228    | 0.61943    |   2.1 | 65.16
Output  | 0.050725   | 0.090618   | 0.13942    |   8.8 | 10.14
Modify  | 0.083184   | 0.12213    | 0.14451    |   4.5 | 13.67
Other   |            | 0.0628     |            |       |  7.03

Nlocal:          5.625 ave           9 max           3 min
Histogram: 3 7 0 20 0 21 8 0 4 1
Nghost:        537.547 ave         554 max         520 min
Histogram: 4 5 4 5 6 18 10 6 3 3
Neighs:        324.625 ave         495 max         151 min
Histogram: 3 4 4 8 14 10 7 9 3 2

Total # of neighbors = 20776
Ave neighs/atom = 57.711111
Neighbor list builds = 337
Dangerous builds = 0
Total wall time: 0:00:00
LAMMPS (15 Sep 2022)
OMP_NUM_THREADS environment is not set. Defaulting to 1 thread. (src/comm.cpp:98)
  using 1 OpenMP thread(s) per MPI task
Reading restart file ...
  restart file = 15 Sep 2022, LAMMPS = 15 Sep 2022
WARNING: Restart file used different # of processors: 48 vs. 64 (src/read_restart.cpp:659)
  restoring atom style atomic from restart
  orthogonal box = (0 0 0) to (6.6943295 6.6943295 6.6943295)
  4 by 4 by 4 MPI processor grid
  restoring pair style lj/cut from restart
  360 atoms
  read_restart CPU = 0.027 seconds
Setting up equilibration run
Resetting global fix info from restart file:
  fix style: nvt, fix ID: 1
Generated 0 of 1 mixed pair_coeff terms from geometric mixing rule
All restart file global fix info was re-assigned
Neighbor list info ...
  update: every = 1 steps, delay = 25 steps, check = yes
  max neighbors/atom: 2000, page size: 100000
  master list distance cutoff = 3
  ghost atom cutoff = 3
  binsize = 1.5, bins = 5 5 5
  1 neighbor lists, perpetual/occasional/extra = 1 0 0
  (1) pair lj/cut, perpetual
      attributes: half, newton on
      pair build: half/bin/atomonly/newton
      stencil: half/bin/3d
      bin: standard
Setting up Verlet run ...
  Unit style    : lj
  Current step  : 0
  Time step     : 0.002
Per MPI rank memory allocation (min/avg/max) = 2.981 | 2.981 | 2.981 Mbytes
   Step          Temp          E_pair         E_mol          TotEng         Press     
         0   0.88738961    -6.1091323      0             -4.7817453      9.1294106    
      5000   0.92234423    -6.249797       0             -4.8701238      8.2745789    
     10000   0.83315459    -6.109219       0             -4.8629586      9.1040899    
     15000   0.85549614    -6.1796003      0             -4.8999206      8.6340182    
     20000   0.88108335    -6.1331166      0             -4.8151627      8.9670173    
     25000   0.84842639    -6.2878989      0             -5.0187944      7.9838616    
     30000   0.94915236    -6.1773567      0             -4.757583       8.9045037    
     35000   0.89729066    -6.2221423      0             -4.879945       8.3560586    
     37500   0.89970643    -6.193583       0             -4.8477721      8.7437445    
Loop time of 2.27744 on 64 procs for 37500 steps with 360 atoms

Performance: 2845296.523 tau/day, 16465.836 timesteps/s, 5.928 Matom-step/s
99.6% CPU use with 64 MPI tasks x 1 OpenMP threads

MPI task timing breakdown:
Section |  min time  |  avg time  |  max time  |%varavg| %total
---------------------------------------------------------------
Pair    | 0.083346   | 0.09091    | 0.10706    |   1.4 |  3.99
Neigh   | 0.013381   | 0.014512   | 0.01562    |   0.4 |  0.64
Comm    | 1.5477     | 1.6088     | 1.6855     |   2.9 | 70.64
Output  | 0.079403   | 0.12181    | 0.1732     |   7.9 |  5.35
Modify  | 0.22295    | 0.32639    | 0.39414    |   7.8 | 14.33
Other   |            | 0.115      |            |       |  5.05

Nlocal:          5.625 ave           9 max           3 min
Histogram: 1 10 0 18 0 23 8 0 3 1
Nghost:        533.766 ave         555 max         521 min
Histogram: 7 9 11 11 8 10 2 3 2 1
Neighs:        324.797 ave         525 max         170 min
Histogram: 1 3 11 10 20 9 6 3 0 1

Total # of neighbors = 20787
Ave neighs/atom = 57.741667
Neighbor list builds = 960
Dangerous builds = 0
Total wall time: 0:00:02
LAMMPS (15 Sep 2022)
OMP_NUM_THREADS environment is not set. Defaulting to 1 thread. (src/comm.cpp:98)
  using 1 OpenMP thread(s) per MPI task
Reading restart file ...
  restart file = 15 Sep 2022, LAMMPS = 15 Sep 2022
WARNING: Restart file used different # of processors: 48 vs. 64 (src/read_restart.cpp:659)
  restoring atom style atomic from restart
  orthogonal box = (0 0 0) to (6.6943295 6.6943295 6.6943295)
  4 by 4 by 4 MPI processor grid
  restoring pair style lj/cut from restart
  360 atoms
  read_restart CPU = 0.016 seconds
Setting up equilibration run
Resetting global fix info from restart file:
  fix style: nvt, fix ID: 1
Generated 0 of 1 mixed pair_coeff terms from geometric mixing rule
All restart file global fix info was re-assigned
Neighbor list info ...
  update: every = 1 steps, delay = 25 steps, check = yes
  max neighbors/atom: 2000, page size: 100000
  master list distance cutoff = 3
  ghost atom cutoff = 3
  binsize = 1.5, bins = 5 5 5
  1 neighbor lists, perpetual/occasional/extra = 1 0 0
  (1) pair lj/cut, perpetual
      attributes: half, newton on
      pair build: half/bin/atomonly/newton
      stencil: half/bin/3d
      bin: standard
Setting up Verlet run ...
  Unit style    : lj
  Current step  : 0
  Time step     : 0.002
Per MPI rank memory allocation (min/avg/max) = 2.981 | 2.981 | 2.981 Mbytes
   Step          Temp          E_pair         E_mol          TotEng         Press     
         0   0.79181795    -6.3791872      0             -5.1947595      7.4807272    
      5000   0.78042098    -6.3132665      0             -5.1458868      7.8652702    
     10000   0.81576341    -6.3384419      0             -5.1181958      7.5232269    
     15000   0.80177724    -6.3308356      0             -5.1315104      7.4799899    
     20000   0.77380105    -6.3417064      0             -5.184229       7.6525766    
     25000   0.75786826    -6.3966486      0             -5.263004       7.0761138    
     30000   0.79211959    -6.3758064      0             -5.1909276      7.3587395    
     35000   0.75556332    -6.3476084      0             -5.2174116      7.461653     
     37500   0.7921304     -6.335077       0             -5.150182       7.780904     
Loop time of 2.27423 on 64 procs for 37500 steps with 360 atoms

Performance: 2849309.822 tau/day, 16489.061 timesteps/s, 5.936 Matom-step/s
99.7% CPU use with 64 MPI tasks x 1 OpenMP threads

MPI task timing breakdown:
Section |  min time  |  avg time  |  max time  |%varavg| %total
---------------------------------------------------------------
Pair    | 0.075889   | 0.090523   | 0.10212    |   1.6 |  3.98
Neigh   | 0.012367   | 0.013559   | 0.015072   |   0.4 |  0.60
Comm    | 1.5504     | 1.6163     | 1.685      |   2.6 | 71.07
Output  | 0.06618    | 0.10814    | 0.15943    |   8.4 |  4.76
Modify  | 0.22624    | 0.31959    | 0.3842     |   7.3 | 14.05
Other   |            | 0.1261     |            |       |  5.54

Nlocal:          5.625 ave           8 max           3 min
Histogram: 2 0 12 0 13 0 20 0 15 2
Nghost:        538.297 ave         549 max         529 min
Histogram: 3 4 6 10 11 10 7 7 3 3
Neighs:        325.156 ave         446 max         163 min
Histogram: 2 4 3 10 3 11 7 11 5 8

Total # of neighbors = 20810
Ave neighs/atom = 57.805556
Neighbor list builds = 893
Dangerous builds = 0
Total wall time: 0:00:02
LAMMPS (15 Sep 2022)
OMP_NUM_THREADS environment is not set. Defaulting to 1 thread. (src/comm.cpp:98)
  using 1 OpenMP thread(s) per MPI task
Reading restart file ...
  restart file = 15 Sep 2022, LAMMPS = 15 Sep 2022
WARNING: Restart file used different # of processors: 48 vs. 64 (src/read_restart.cpp:659)
  restoring atom style atomic from restart
  orthogonal box = (0 0 0) to (6.6943295 6.6943295 6.6943295)
  4 by 4 by 4 MPI processor grid
  restoring pair style lj/cut from restart
  360 atoms
  read_restart CPU = 0.023 seconds
Setting up equilibration run
Resetting global fix info from restart file:
  fix style: nvt, fix ID: 1
Generated 0 of 1 mixed pair_coeff terms from geometric mixing rule
All restart file global fix info was re-assigned
Neighbor list info ...
  update: every = 1 steps, delay = 25 steps, check = yes
  max neighbors/atom: 2000, page size: 100000
  master list distance cutoff = 3
  ghost atom cutoff = 3
  binsize = 1.5, bins = 5 5 5
  1 neighbor lists, perpetual/occasional/extra = 1 0 0
  (1) pair lj/cut, perpetual
      attributes: half, newton on
      pair build: half/bin/atomonly/newton
      stencil: half/bin/3d
      bin: standard
Setting up Verlet run ...
  Unit style    : lj
  Current step  : 0
  Time step     : 0.003
Per MPI rank memory allocation (min/avg/max) = 2.981 | 2.981 | 2.981 Mbytes
   Step          Temp          E_pair         E_mol          TotEng         Press     
         0   0.62997643    -6.5574449      0             -5.6151051      6.0272861    
      6000   0.670546      -6.4061573      0             -5.4031323      7.0594222    
     12000   0.75846438    -6.4867382      0             -5.3522019      6.6171476    
     18000   0.67330361    -6.5984375      0             -5.5912875      5.8357992    
     24000   0.72093535    -6.5051414      0             -5.4267423      6.2774297    
     30000   0.69954287    -6.5128888      0             -5.4664893      6.6353624    
     36000   0.74663762    -6.556343       0             -5.4394976      6.1336272    
     42000   0.6566412     -6.4894958      0             -5.50727        6.5949964    
     45000   0.71202406    -6.6137949      0             -5.5487256      6.0173306    
Loop time of 2.66142 on 64 procs for 45000 steps with 360 atoms

Performance: 4382615.334 tau/day, 16908.238 timesteps/s, 6.087 Matom-step/s
99.7% CPU use with 64 MPI tasks x 1 OpenMP threads

MPI task timing breakdown:
Section |  min time  |  avg time  |  max time  |%varavg| %total
---------------------------------------------------------------
Pair    | 0.097497   | 0.11085    | 0.12411    |   1.9 |  4.16
Neigh   | 0.020669   | 0.022171   | 0.023897   |   0.5 |  0.83
Comm    | 1.8713     | 1.959      | 2.0614     |   3.5 | 73.61
Output  | 0.06786    | 0.11019    | 0.1622     |   8.4 |  4.14
Modify  | 0.25663    | 0.38004    | 0.46457    |   8.6 | 14.28
Other   |            | 0.07922    |            |       |  2.98

Nlocal:          5.625 ave           9 max           3 min
Histogram: 1 10 0 20 0 20 8 0 4 1
Nghost:        538.297 ave         551 max         527 min
Histogram: 5 2 10 9 6 16 4 7 2 3
Neighs:        324.672 ave         514 max         180 min
Histogram: 3 7 8 11 13 9 6 3 3 1

Total # of neighbors = 20779
Ave neighs/atom = 57.719444
Neighbor list builds = 1479
Dangerous builds = 106
Total wall time: 0:00:02
LAMMPS (15 Sep 2022)
OMP_NUM_THREADS environment is not set. Defaulting to 1 thread. (src/comm.cpp:98)
  using 1 OpenMP thread(s) per MPI task
Reading restart file ...
  restart file = 15 Sep 2022, LAMMPS = 15 Sep 2022
WARNING: Restart file used different # of processors: 48 vs. 64 (src/read_restart.cpp:659)
  restoring atom style atomic from restart
  orthogonal box = (0 0 0) to (6.6943295 6.6943295 6.6943295)
  4 by 4 by 4 MPI processor grid
  restoring pair style lj/cut from restart
  360 atoms
  read_restart CPU = 0.010 seconds
Setting up equilibration run
Resetting global fix info from restart file:
  fix style: nvt, fix ID: 1
Generated 0 of 1 mixed pair_coeff terms from geometric mixing rule
All restart file global fix info was re-assigned
Neighbor list info ...
  update: every = 1 steps, delay = 25 steps, check = yes
  max neighbors/atom: 2000, page size: 100000
  master list distance cutoff = 3
  ghost atom cutoff = 3
  binsize = 1.5, bins = 5 5 5
  1 neighbor lists, perpetual/occasional/extra = 1 0 0
  (1) pair lj/cut, perpetual
      attributes: half, newton on
      pair build: half/bin/atomonly/newton
      stencil: half/bin/3d
      bin: standard
Setting up Verlet run ...
  Unit style    : lj
  Current step  : 0
  Time step     : 0.003
Per MPI rank memory allocation (min/avg/max) = 2.981 | 2.981 | 2.981 Mbytes
   Step          Temp          E_pair         E_mol          TotEng         Press     
         0   0.66391008    -6.5748075      0             -5.5817086      6.2111259    
     70000   0.65414116    -6.6642543      0             -5.6857681      5.4136157    
     87500   0.62560628    -6.6125074      0             -5.6767047      5.6829129    
Loop time of 5.01078 on 64 procs for 87500 steps with 360 atoms

Performance: 4526242.031 tau/day, 17462.354 timesteps/s, 6.286 Matom-step/s
99.7% CPU use with 64 MPI tasks x 1 OpenMP threads

MPI task timing breakdown:
Section |  min time  |  avg time  |  max time  |%varavg| %total
---------------------------------------------------------------
Pair    | 0.19002    | 0.21446    | 0.24682    |   2.3 |  4.28
Neigh   | 0.038257   | 0.041211   | 0.044857   |   0.7 |  0.82
Comm    | 3.5761     | 3.7132     | 3.9062     |   4.6 | 74.10
Output  | 0.075982   | 0.11982    | 0.17339    |   8.3 |  2.39
Modify  | 0.51789    | 0.75651    | 0.92011    |  11.7 | 15.10
Other   |            | 0.1656     |            |       |  3.30

Nlocal:          5.625 ave           8 max           3 min
Histogram: 1 0 9 0 20 0 20 0 11 3
Nghost:            540 ave         560 max         524 min
Histogram: 2 6 7 11 8 14 12 3 0 1
Neighs:        324.969 ave         465 max         173 min
Histogram: 1 4 7 9 12 9 4 7 5 6

Total # of neighbors = 20798
Ave neighs/atom = 57.772222
Neighbor list builds = 2750
Dangerous builds = 99
Total wall time: 0:00:05
LAMMPS (15 Sep 2022)
OMP_NUM_THREADS environment is not set. Defaulting to 1 thread. (src/comm.cpp:98)
  using 1 OpenMP thread(s) per MPI task
Reading restart file ...
  restart file = 15 Sep 2022, LAMMPS = 15 Sep 2022
WARNING: Restart file used different # of processors: 48 vs. 64 (src/read_restart.cpp:659)
  restoring atom style atomic from restart
  orthogonal box = (0 0 0) to (6.6943295 6.6943295 6.6943295)
  4 by 4 by 4 MPI processor grid
  restoring pair style lj/cut from restart
  360 atoms
  read_restart CPU = 0.011 seconds
Setting up equilibration run
Resetting global fix info from restart file:
  fix style: nvt, fix ID: 1
Generated 0 of 1 mixed pair_coeff terms from geometric mixing rule
All restart file global fix info was re-assigned
Neighbor list info ...
  update: every = 1 steps, delay = 25 steps, check = yes
  max neighbors/atom: 2000, page size: 100000
  master list distance cutoff = 3
  ghost atom cutoff = 3
  binsize = 1.5, bins = 5 5 5
  1 neighbor lists, perpetual/occasional/extra = 1 0 0
  (1) pair lj/cut, perpetual
      attributes: half, newton on
      pair build: half/bin/atomonly/newton
      stencil: half/bin/3d
      bin: standard
Setting up Verlet run ...
  Unit style    : lj
  Current step  : 0
  Time step     : 0.003
Per MPI rank memory allocation (min/avg/max) = 2.981 | 2.981 | 2.981 Mbytes
   Step          Temp          E_pair         E_mol          TotEng         Press     
         0   0.55606749    -6.6683433      0             -5.836559       5.1338672    
     50000   0.60320744    -6.7465886      0             -5.8442908      4.786095     
    100000   0.59318539    -6.669922       0             -5.7826155      5.1940491    
    150000   0.61314983    -6.7222094      0             -5.8050395      5.2053902    
    200000   0.61008168    -6.73535        0             -5.8227695      5.0777979    
    250000   0.58331045    -6.6796191      0             -5.8070839      5.197768     
Loop time of 14.0169 on 64 procs for 250000 steps with 360 atoms

Performance: 4622981.618 tau/day, 17835.577 timesteps/s, 6.421 Matom-step/s
99.7% CPU use with 64 MPI tasks x 1 OpenMP threads

MPI task timing breakdown:
Section |  min time  |  avg time  |  max time  |%varavg| %total
---------------------------------------------------------------
Pair    | 0.55148    | 0.61275    | 0.69479    |   3.8 |  4.37
Neigh   | 0.10121    | 0.11175    | 0.12075    |   1.2 |  0.80
Comm    | 10.141     | 10.482     | 11.06      |   7.5 | 74.78
Output  | 0.14469    | 0.19164    | 0.24946    |   6.9 |  1.37
Modify  | 1.4113     | 2.1149     | 2.5711     |  20.6 | 15.09
Other   |            | 0.5042     |            |       |  3.60

Nlocal:          5.625 ave           8 max           3 min
Histogram: 2 0 8 0 17 0 23 0 13 1
Nghost:        536.078 ave         548 max         521 min
Histogram: 3 3 5 6 2 15 11 12 5 2
Neighs:        324.219 ave         477 max         160 min
Histogram: 2 1 7 7 11 11 16 3 4 2

Total # of neighbors = 20750
Ave neighs/atom = 57.638889
Neighbor list builds = 7473
Dangerous builds = 138
Total wall time: 0:00:14
LAMMPS (15 Sep 2022)
OMP_NUM_THREADS environment is not set. Defaulting to 1 thread. (src/comm.cpp:98)
  using 1 OpenMP thread(s) per MPI task
Reading restart file ...
  restart file = 15 Sep 2022, LAMMPS = 15 Sep 2022
WARNING: Restart file used different # of processors: 48 vs. 64 (src/read_restart.cpp:659)
  restoring atom style atomic from restart
  orthogonal box = (0 0 0) to (6.6943295 6.6943295 6.6943295)
  4 by 4 by 4 MPI processor grid
  restoring pair style lj/cut from restart
  360 atoms
  read_restart CPU = 0.027 seconds
Setting up equilibration run
Resetting global fix info from restart file:
  fix style: nvt, fix ID: 1
Generated 0 of 1 mixed pair_coeff terms from geometric mixing rule
All restart file global fix info was re-assigned
Neighbor list info ...
  update: every = 1 steps, delay = 25 steps, check = yes
  max neighbors/atom: 2000, page size: 100000
  master list distance cutoff = 3
  ghost atom cutoff = 3
  binsize = 1.5, bins = 5 5 5
  1 neighbor lists, perpetual/occasional/extra = 1 0 0
  (1) pair lj/cut, perpetual
      attributes: half, newton on
      pair build: half/bin/atomonly/newton
      stencil: half/bin/3d
      bin: standard
Setting up Verlet run ...
  Unit style    : lj
  Current step  : 0
  Time step     : 0.003
Per MPI rank memory allocation (min/avg/max) = 2.981 | 2.981 | 2.981 Mbytes
   Step          Temp          E_pair         E_mol          TotEng         Press     
         0   0.58125972    -6.7875588      0             -5.9180911      4.5866543    
     30000   0.61396063    -6.8268431      0             -5.9084603      4.3263101    
     60000   0.55145769    -6.7893315      0             -5.9644427      4.5032915    
     90000   0.54743203    -6.8142213      0             -5.9953542      4.4676765    
    120000   0.54019794    -6.7834062      0             -5.9753601      4.5555418    
    150000   0.56693578    -6.8148993      0             -5.9668578      4.5852927    
    180000   0.5327601     -6.7779112      0             -5.9809909      4.7495746    
    210000   0.58317864    -6.7698362      0             -5.8974981      4.7102696    
    240000   0.58584545    -6.7818462      0             -5.9055191      4.6727895    
    270000   0.56210993    -6.8210725      0             -5.9802498      4.3748938    
    300000   0.56593923    -6.8544323      0             -6.0078816      4.111984     
    330000   0.54094884    -6.8119837      0             -6.0028144      4.4365113    
    360000   0.50591785    -6.7711057      0             -6.0143369      4.6185637    
    390000   0.54288385    -6.7723943      0             -5.9603305      4.7200944    
    420000   0.58751501    -6.7558463      0             -5.8770217      4.9460636    
    450000   0.51828653    -6.7805684      0             -6.0052981      4.5574902    
    480000   0.55285812    -6.7929947      0             -5.9660111      4.5406296    
    510000   0.52828803    -6.8286681      0             -6.0384373      4.3649018    
    540000   0.55673456    -6.8094579      0             -5.9766758      4.4446574    
    570000   0.56502489    -6.804941       0             -5.9597579      4.4902491    
    600000   0.57286424    -6.7840179      0             -5.9271085      4.7321341    
    630000   0.53994585    -6.8081156      0             -6.0004466      4.3494917    
    660000   0.54431748    -6.7686494      0             -5.9544412      4.7583327    
    690000   0.54222535    -6.7808003      0             -5.9697215      4.4318446    
    720000   0.55244878    -6.8211198      0             -5.9947485      4.3381125    
    750000   0.57995572    -6.8145624      0             -5.9470453      4.3974746    
Loop time of 41.4739 on 64 procs for 750000 steps with 360 atoms

Performance: 4687281.027 tau/day, 18083.646 timesteps/s, 6.510 Matom-step/s
99.7% CPU use with 64 MPI tasks x 1 OpenMP threads

MPI task timing breakdown:
Section |  min time  |  avg time  |  max time  |%varavg| %total
---------------------------------------------------------------
Pair    | 1.6378     | 1.826      | 1.9911     |   5.3 |  4.40
Neigh   | 0.28879    | 0.31649    | 0.34217    |   1.9 |  0.76
Comm    | 30.247     | 31.209     | 32.897     |  13.3 | 75.25
Output  | 0.13641    | 0.18285    | 0.24047    |   7.0 |  0.44
Modify  | 4.1204     | 6.2903     | 7.6671     |  36.1 | 15.17
Other   |            | 1.65       |            |       |  3.98

Nlocal:          5.625 ave           9 max           3 min
Histogram: 2 10 0 19 0 18 11 0 2 2
Nghost:        530.234 ave         543 max         518 min
Histogram: 1 6 8 8 9 9 8 8 4 3
Neighs:          324.5 ave         539 max         142 min
Histogram: 1 1 9 15 13 9 12 2 0 2

Total # of neighbors = 20768
Ave neighs/atom = 57.688889
Neighbor list builds = 21220
Dangerous builds = 155
Total wall time: 0:00:41
LAMMPS (15 Sep 2022)
OMP_NUM_THREADS environment is not set. Defaulting to 1 thread. (src/comm.cpp:98)
  using 1 OpenMP thread(s) per MPI task
Reading restart file ...
  restart file = 15 Sep 2022, LAMMPS = 15 Sep 2022
WARNING: Restart file used different # of processors: 48 vs. 64 (src/read_restart.cpp:659)
  restoring atom style atomic from restart
  orthogonal box = (0 0 0) to (6.6943295 6.6943295 6.6943295)
  4 by 4 by 4 MPI processor grid
  restoring pair style lj/cut from restart
  360 atoms
  read_restart CPU = 0.024 seconds
Setting up equilibration run
Resetting global fix info from restart file:
  fix style: nvt, fix ID: 1
Generated 0 of 1 mixed pair_coeff terms from geometric mixing rule
All restart file global fix info was re-assigned
Neighbor list info ...
  update: every = 1 steps, delay = 25 steps, check = yes
  max neighbors/atom: 2000, page size: 100000
  master list distance cutoff = 3
  ghost atom cutoff = 3
  binsize = 1.5, bins = 5 5 5
  1 neighbor lists, perpetual/occasional/extra = 1 0 0
  (1) pair lj/cut, perpetual
      attributes: half, newton on
      pair build: half/bin/atomonly/newton
      stencil: half/bin/3d
      bin: standard
Setting up Verlet run ...
  Unit style    : lj
  Current step  : 0
  Time step     : 0.003
Per MPI rank memory allocation (min/avg/max) = 2.981 | 2.981 | 2.981 Mbytes
   Step          Temp          E_pair         E_mol          TotEng         Press     
         0   0.52723295    -6.8712569      0             -6.0826043      4.0423733    
    100000   0.47726103    -6.9271762      0             -6.2132732      3.5896498    
    200000   0.50497498    -6.919827       0             -6.1644686      3.6533503    
    300000   0.49496835    -6.8999329      0             -6.1595428      3.8699434    
    400000   0.5246222     -6.9011458      0             -6.1163984      3.8636717    
    500000   0.54947063    -6.8683455      0             -6.0464291      4.1253671    
    600000   0.52628979    -6.8603449      0             -6.0731031      4.0391737    
    700000   0.53258174    -6.9106194      0             -6.1139658      3.7330803    
    800000   0.51833825    -6.8692044      0             -6.0938568      3.9968607    
    900000   0.50530994    -6.9904834      0             -6.2346239      3.2862678    
   1000000   0.51588561    -6.9080916      0             -6.1364127      3.9559278    
   1100000   0.52002514    -6.8557331      0             -6.0778621      4.0688549    
   1200000   0.50076305    -6.966191       0             -6.2171329      3.5807881    
   1300000   0.52401212    -6.8735983      0             -6.0897635      4.0938022    
   1400000   0.52448791    -6.8720807      0             -6.0875341      3.9506519    
   1500000   0.49475337    -6.9459661      0             -6.2058975      3.5735227    
   1600000   0.52303863    -6.8905115      0             -6.1081329      3.9696054    
   1700000   0.5145009     -6.8995082      0             -6.1299006      3.8345216    
   1800000   0.4638167     -6.9136429      0             -6.2198504      3.687357     
   1900000   0.50756672    -6.8927837      0             -6.1335485      3.8358577    
   2000000   0.47057426    -6.8998076      0             -6.1959069      3.8546305    
   2100000   0.47675819    -6.9771164      0             -6.2639656      3.303804     
   2200000   0.51074475    -6.9144177      0             -6.1504287      3.7179807    
   2300000   0.50999938    -6.93868        0             -6.175806       3.6358119    
   2400000   0.49677226    -6.919863       0             -6.1767745      3.8704518    
   2500000   0.51908703    -6.8567143      0             -6.0802466      4.2949528    
Loop time of 139.158 on 64 procs for 2500000 steps with 360 atoms

Performance: 4656573.782 tau/day, 17965.177 timesteps/s, 6.467 Matom-step/s
99.6% CPU use with 64 MPI tasks x 1 OpenMP threads

MPI task timing breakdown:
Section |  min time  |  avg time  |  max time  |%varavg| %total
---------------------------------------------------------------
Pair    | 5.4599     | 6.0657     | 6.6833     |  12.0 |  4.36
Neigh   | 0.92046    | 0.99403    | 1.0805     |   3.6 |  0.71
Comm    | 101.51     | 104.61     | 109.86     |  22.8 | 75.17
Output  | 0.13222    | 0.17906    | 0.23773    |   7.1 |  0.13
Modify  | 14.26      | 21.193     | 25.49      |  64.7 | 15.23
Other   |            | 6.119      |            |       |  4.40

Nlocal:          5.625 ave           9 max           3 min
Histogram: 2 12 0 17 0 15 14 0 3 1
Nghost:        533.016 ave         553 max         517 min
Histogram: 2 5 7 14 10 15 5 3 2 1
Neighs:        324.219 ave         517 max         180 min
Histogram: 3 7 10 11 11 6 9 5 0 2

Total # of neighbors = 20750
Ave neighs/atom = 57.638889
Neighbor list builds = 66445
Dangerous builds = 162
Total wall time: 0:02:19
LAMMPS (15 Sep 2022)
OMP_NUM_THREADS environment is not set. Defaulting to 1 thread. (src/comm.cpp:98)
  using 1 OpenMP thread(s) per MPI task
Reading restart file ...
  restart file = 15 Sep 2022, LAMMPS = 15 Sep 2022
WARNING: Restart file used different # of processors: 48 vs. 64 (src/read_restart.cpp:659)
  restoring atom style atomic from restart
  orthogonal box = (0 0 0) to (6.6943295 6.6943295 6.6943295)
  4 by 4 by 4 MPI processor grid
  restoring pair style lj/cut from restart
  360 atoms
  read_restart CPU = 0.044 seconds
Setting up equilibration run
Resetting global fix info from restart file:
  fix style: nvt, fix ID: 1
Generated 0 of 1 mixed pair_coeff terms from geometric mixing rule
All restart file global fix info was re-assigned
Neighbor list info ...
  update: every = 1 steps, delay = 25 steps, check = yes
  max neighbors/atom: 2000, page size: 100000
  master list distance cutoff = 3
  ghost atom cutoff = 3
  binsize = 1.5, bins = 5 5 5
  1 neighbor lists, perpetual/occasional/extra = 1 0 0
  (1) pair lj/cut, perpetual
      attributes: half, newton on
      pair build: half/bin/atomonly/newton
      stencil: half/bin/3d
      bin: standard
Setting up Verlet run ...
  Unit style    : lj
  Current step  : 0
  Time step     : 0.003
Per MPI rank memory allocation (min/avg/max) = 2.981 | 2.981 | 2.981 Mbytes
   Step          Temp          E_pair         E_mol          TotEng         Press     
         0   0.48513088    -6.9423592      0             -6.2166842      3.4827692    
    300000   0.45712885    -6.9831984      0             -6.2994098      3.3622884    
    600000   0.5210906     -6.9835942      0             -6.2041295      3.3343794    
    900000   0.48319114    -6.9476955      0             -6.224922       3.4077125    
   1200000   0.48244133    -6.947181       0             -6.2255291      3.4433093    
   1500000   0.45686785    -6.8883454      0             -6.2049472      3.959778     
   1800000   0.48400204    -6.9805981      0             -6.2566118      3.3237438    
   2100000   0.48232862    -6.9545818      0             -6.2330986      3.4655939    
   2400000   0.43643052    -6.9034924      0             -6.250665       3.6623178    
   2700000   0.49124218    -6.9718519      0             -6.2370355      3.3435672    
   3000000   0.4760828     -6.9768752      0             -6.2647347      3.4030193    
   3300000   0.49405645    -7.0018991      0             -6.262873       3.1231528    
   3600000   0.46877649    -6.8981652      0             -6.1969537      3.8287572    
   3900000   0.46728759    -6.937752       0             -6.2387676      3.591476     
   4200000   0.47880631    -6.9707505      0             -6.254536       3.1564195    
   4500000   0.47679264    -7.0135752      0             -6.3003729      3.012892     
   4800000   0.49083819    -7.0023942      0             -6.2681821      3.089904     
   5100000   0.49059848    -6.9643364      0             -6.2304829      3.3053281    
   5400000   0.48891565    -6.8970129      0             -6.1656766      3.7860362    
   5700000   0.44427979    -6.891207       0             -6.2266385      3.8159865    
   6000000   0.49139336    -6.9622119      0             -6.2271694      3.5288228    
   6300000   0.47941886    -6.9295674      0             -6.2124367      3.592301     
   6600000   0.47695067    -6.9444245      0             -6.2309858      3.5586864    
   6900000   0.44449004    -6.9625715      0             -6.2976885      3.3262623    
   7200000   0.49515564    -6.9165557      0             -6.1758854      3.650596     
   7500000   0.46427663    -6.9191104      0             -6.22463        3.7191531    
Loop time of 413.733 on 64 procs for 7500000 steps with 360 atoms

Performance: 4698677.834 tau/day, 18127.615 timesteps/s, 6.526 Matom-step/s
99.7% CPU use with 64 MPI tasks x 1 OpenMP threads

MPI task timing breakdown:
Section |  min time  |  avg time  |  max time  |%varavg| %total
---------------------------------------------------------------
Pair    | 15.999     | 18.144     | 19.806     |  18.7 |  4.39
Neigh   | 2.6657     | 2.8747     | 3.0711     |   5.6 |  0.69
Comm    | 302.49     | 311.24     | 328.46     |  39.9 | 75.23
Output  | 0.12644    | 0.17396    | 0.23334    |   7.3 |  0.04
Modify  | 40.985     | 62.398     | 75.831     | 115.6 | 15.08
Other   |            | 18.9       |            |       |  4.57

Nlocal:          5.625 ave           8 max           3 min
Histogram: 2 0 8 0 15 0 27 0 11 1
Nghost:        533.078 ave         545 max         522 min
Histogram: 3 2 7 9 10 14 12 5 1 1
Neighs:        325.047 ave         497 max         171 min
Histogram: 4 0 11 8 11 12 10 3 4 1

Total # of neighbors = 20803
Ave neighs/atom = 57.786111
Neighbor list builds = 192463
Dangerous builds = 259
Total wall time: 0:06:53
LAMMPS (15 Sep 2022)
OMP_NUM_THREADS environment is not set. Defaulting to 1 thread. (src/comm.cpp:98)
  using 1 OpenMP thread(s) per MPI task
Reading restart file ...
  restart file = 15 Sep 2022, LAMMPS = 15 Sep 2022
WARNING: Restart file used different # of processors: 48 vs. 64 (src/read_restart.cpp:659)
  restoring atom style atomic from restart
  orthogonal box = (0 0 0) to (6.6943295 6.6943295 6.6943295)
  4 by 4 by 4 MPI processor grid
  restoring pair style lj/cut from restart
  360 atoms
  read_restart CPU = 0.014 seconds
Setting up equilibration run
Resetting global fix info from restart file:
  fix style: nvt, fix ID: 1
Generated 0 of 1 mixed pair_coeff terms from geometric mixing rule
All restart file global fix info was re-assigned
Neighbor list info ...
  update: every = 1 steps, delay = 25 steps, check = yes
  max neighbors/atom: 2000, page size: 100000
  master list distance cutoff = 3
  ghost atom cutoff = 3
  binsize = 1.5, bins = 5 5 5
  1 neighbor lists, perpetual/occasional/extra = 1 0 0
  (1) pair lj/cut, perpetual
      attributes: half, newton on
      pair build: half/bin/atomonly/newton
      stencil: half/bin/3d
      bin: standard
Setting up Verlet run ...
  Unit style    : lj
  Current step  : 0
  Time step     : 0.003
Per MPI rank memory allocation (min/avg/max) = 2.981 | 2.981 | 2.981 Mbytes
   Step          Temp          E_pair         E_mol          TotEng         Press     
         0   0.44666927    -7.0268641      0             -6.3587213      3.0126553    
   1000000   0.42574777    -7.040821       0             -6.4039733      2.9877579    
   2000000   0.43060072    -7.0435004      0             -6.3993935      2.8422358    
   3000000   0.44394947    -7.012347       0             -6.3482726      2.952749     
   4000000   0.42108307    -7.0154503      0             -6.3855802      2.8971912    
   5000000   0.46341959    -6.9917856      0             -6.2985871      3.3473511    
   6000000   0.44330747    -6.9732444      0             -6.3101303      3.2935057    
   7000000   0.44537138    -6.9828919      0             -6.3166905      3.2512424    
   8000000   0.45614883    -7.0088264      0             -6.3265038      3.148129     
   9000000   0.43339495    -6.9505955      0             -6.3023089      3.373387     
  10000000   0.44665716    -7.027734       0             -6.3596093      2.7768277    
  11000000   0.45008622    -6.9791665      0             -6.3059125      3.2655707    
  12000000   0.4396021     -7.0459811      0             -6.3884096      2.8514701    
  13000000   0.41672451    -7.041522       0             -6.4181716      2.8964264    
  14000000   0.44751861    -7.0294128      0             -6.3599995      3.0029191    
  15000000   0.44534567    -6.9920276      0             -6.3258647      3.2427147    
  16000000   0.44934822    -7.0754679      0             -6.4033179      2.6908222    
  17000000   0.47922082    -7.1008261      0             -6.3839916      2.5183866    
  18000000   0.4313422     -7.0522052      0             -6.4069891      2.6872172    
  19000000   0.45958435    -6.9952774      0             -6.3078158      3.187272     
  20000000   0.46018453    -7.0324251      0             -6.3440657      2.8629529    
  21000000   0.43962321    -6.9773095      0             -6.3197064      3.0144321    
  22000000   0.43715157    -6.9790958      0             -6.32519        3.2846103    
  23000000   0.43428729    -6.9787055      0             -6.3290841      3.3576311    
  24000000   0.48486348    -6.9498762      0             -6.2246013      3.5359832    
  25000000   0.45613141    -7.0775261      0             -6.3952295      2.5208212    
Loop time of 1379.92 on 64 procs for 25000000 steps with 360 atoms

Performance: 4695917.891 tau/day, 18116.967 timesteps/s, 6.522 Matom-step/s
99.7% CPU use with 64 MPI tasks x 1 OpenMP threads

MPI task timing breakdown:
Section |  min time  |  avg time  |  max time  |%varavg| %total
---------------------------------------------------------------
Pair    | 51.918     | 60.523     | 66.884     |  44.9 |  4.39
Neigh   | 8.3074     | 9.2458     | 9.8957     |  11.3 |  0.67
Comm    | 1007.7     | 1037.5     | 1089.2     |  69.4 | 75.19
Output  | 0.13238    | 0.17943    | 0.23935    |   7.1 |  0.01
Modify  | 142.69     | 205.64     | 250.87     | 189.4 | 14.90
Other   |            | 66.82      |            |       |  4.84

Nlocal:          5.625 ave           9 max           3 min
Histogram: 2 13 0 13 0 20 12 0 3 1
Nghost:        542.516 ave         560 max         529 min
Histogram: 2 7 9 14 8 10 5 6 0 3
Neighs:        325.422 ave         519 max         173 min
Histogram: 5 8 6 8 11 10 7 5 2 2

Total # of neighbors = 20827
Ave neighs/atom = 57.852778
Neighbor list builds = 618011
Dangerous builds = 366
Total wall time: 0:22:59
