LAMMPS (15 Sep 2022)
OMP_NUM_THREADS environment is not set. Defaulting to 1 thread. (src/comm.cpp:98)
  using 1 OpenMP thread(s) per MPI task
Reading restart file ...
  restart file = 15 Sep 2022, LAMMPS = 15 Sep 2022
  restoring atom style atomic from restart
  orthogonal box = (0 0 0) to (6.6943295 6.6943295 6.6943295)
  4 by 4 by 4 MPI processor grid
  restoring pair style lj/cut from restart
  360 atoms
  read_restart CPU = 0.023 seconds
Setting up equilibration run
ERROR on proc 0: Substitution for illegal variable neighborstep (src/input.cpp:650)
Last command: neigh_modify every 1 delay ${neighborstep} check yes
ERROR on proc 1: Substitution for illegal variable neighborstep (src/input.cpp:650)
Last command: neigh_modify every 1 delay ${neighborstep} check yes
ERROR on proc 2: Substitution for illegal variable neighborstep (src/input.cpp:650)
Last command: neigh_modify every 1 delay ${neighborstep} check yes
ERROR on proc 3: Substitution for illegal variable neighborstep (src/input.cpp:650)
Last command: neigh_modify every 1 delay ${neighborstep} check yes
ERROR on proc 4: Substitution for illegal variable neighborstep (src/input.cpp:650)
Last command: neigh_modify every 1 delay ${neighborstep} check yes
ERROR on proc 5: Substitution for illegal variable neighborstep (src/input.cpp:650)
Last command: neigh_modify every 1 delay ${neighborstep} check yes
ERROR on proc 6: Substitution for illegal variable neighborstep (src/input.cpp:650)
Last command: neigh_modify every 1 delay ${neighborstep} check yes
ERROR on proc 7: Substitution for illegal variable neighborstep (src/input.cpp:650)
Last command: neigh_modify every 1 delay ${neighborstep} check yes
ERROR on proc 56: Substitution for illegal variable neighborstep (src/input.cpp:650)
Last command: neigh_modify every 1 delay ${neighborstep} check yes
ERROR on proc 24: Substitution for illegal variable neighborstep (src/input.cpp:650)
Last command: neigh_modify every 1 delay ${neighborstep} check yes
ERROR on proc 8: Substitution for illegal variable neighborstep (src/input.cpp:650)
Last command: neigh_modify every 1 delay ${neighborstep} check yes
ERROR on proc 32: Substitution for illegal variable neighborstep (src/input.cpp:650)
Last command: neigh_modify every 1 delay ${neighborstep} check yes
ERROR on proc 57: Substitution for illegal variable neighborstep (src/input.cpp:650)
Last command: neigh_modify every 1 delay ${neighborstep} check yes
ERROR on proc 48: Substitution for illegal variable neighborstep (src/input.cpp:650)
Last command: neigh_modify every 1 delay ${neighborstep} check yes
ERROR on proc 25: Substitution for illegal variable neighborstep (src/input.cpp:650)
Last command: neigh_modify every 1 delay ${neighborstep} check yes
ERROR on proc 9: Substitution for illegal variable neighborstep (src/input.cpp:650)
Last command: neigh_modify every 1 delay ${neighborstep} check yes
ERROR on proc 33: Substitution for illegal variable neighborstep (src/input.cpp:650)
Last command: neigh_modify every 1 delay ${neighborstep} check yes
ERROR on proc 40: Substitution for illegal variable neighborstep (src/input.cpp:650)
Last command: neigh_modify every 1 delay ${neighborstep} check yes
ERROR on proc 58: Substitution for illegal variable neighborstep (src/input.cpp:650)
Last command: neigh_modify every 1 delay ${neighborstep} check yes
ERROR on proc 49: Substitution for illegal variable neighborstep (src/input.cpp:650)
Last command: neigh_modify every 1 delay ${neighborstep} check yes
ERROR on proc 26: Substitution for illegal variable neighborstep (src/input.cpp:650)
Last command: neigh_modify every 1 delay ${neighborstep} check yes
ERROR on proc 10: Substitution for illegal variable neighborstep (src/input.cpp:650)
Last command: neigh_modify every 1 delay ${neighborstep} check yes
ERROR on proc 34: Substitution for illegal variable neighborstep (src/input.cpp:650)
Last command: neigh_modify every 1 delay ${neighborstep} check yes
ERROR on proc 41: Substitution for illegal variable neighborstep (src/input.cpp:650)
Last command: neigh_modify every 1 delay ${neighborstep} check yes
ERROR on proc 59: Substitution for illegal variable neighborstep (src/input.cpp:650)
Last command: neigh_modify every 1 delay ${neighborstep} check yes
ERROR on proc 50: Substitution for illegal variable neighborstep (src/input.cpp:650)
Last command: neigh_modify every 1 delay ${neighborstep} check yes
--------------------------------------------------------------------------
MPI_ABORT was invoked on rank 7 in communicator MPI_COMM_WORLD
with errorcode 1.

NOTE: invoking MPI_ABORT causes Open MPI to kill all MPI processes.
You may or may not see output from other processes, depending on
exactly when Open MPI kills them.
--------------------------------------------------------------------------
ERROR on proc 27: Substitution for illegal variable neighborstep (src/input.cpp:650)
Last command: neigh_modify every 1 delay ${neighborstep} check yes
ERROR on proc 11: Substitution for illegal variable neighborstep (src/input.cpp:650)
Last command: neigh_modify every 1 delay ${neighborstep} check yes
ERROR on proc 35: Substitution for illegal variable neighborstep (src/input.cpp:650)
Last command: neigh_modify every 1 delay ${neighborstep} check yes
ERROR on proc 42: Substitution for illegal variable neighborstep (src/input.cpp:650)
Last command: neigh_modify every 1 delay ${neighborstep} check yes
ERROR on proc 60: Substitution for illegal variable neighborstep (src/input.cpp:650)
Last command: neigh_modify every 1 delay ${neighborstep} check yes
ERROR on proc 51: Substitution for illegal variable neighborstep (src/input.cpp:650)
Last command: neigh_modify every 1 delay ${neighborstep} check yes
ERROR on proc 28: Substitution for illegal variable neighborstep (src/input.cpp:650)
Last command: neigh_modify every 1 delay ${neighborstep} check yes
ERROR on proc 12: Substitution for illegal variable neighborstep (src/input.cpp:650)
Last command: neigh_modify every 1 delay ${neighborstep} check yes
ERROR on proc 36: Substitution for illegal variable neighborstep (src/input.cpp:650)
Last command: neigh_modify every 1 delay ${neighborstep} check yes
ERROR on proc 43: Substitution for illegal variable neighborstep (src/input.cpp:650)
Last command: neigh_modify every 1 delay ${neighborstep} check yes
ERROR on proc 61: Substitution for illegal variable neighborstep (src/input.cpp:650)
Last command: neigh_modify every 1 delay ${neighborstep} check yes
ERROR on proc 52: Substitution for illegal variable neighborstep (src/input.cpp:650)
Last command: neigh_modify every 1 delay ${neighborstep} check yes
ERROR on proc 29: Substitution for illegal variable neighborstep (src/input.cpp:650)
Last command: neigh_modify every 1 delay ${neighborstep} check yes
ERROR on proc 13: Substitution for illegal variable neighborstep (src/input.cpp:650)
Last command: neigh_modify every 1 delay ${neighborstep} check yes
ERROR on proc 37: Substitution for illegal variable neighborstep (src/input.cpp:650)
Last command: neigh_modify every 1 delay ${neighborstep} check yes
ERROR on proc 44: Substitution for illegal variable neighborstep (src/input.cpp:650)
Last command: neigh_modify every 1 delay ${neighborstep} check yes
ERROR on proc 62: Substitution for illegal variable neighborstep (src/input.cpp:650)
Last command: neigh_modify every 1 delay ${neighborstep} check yes
ERROR on proc 53: Substitution for illegal variable neighborstep (src/input.cpp:650)
Last command: neigh_modify every 1 delay ${neighborstep} check yes
ERROR on proc 30: Substitution for illegal variable neighborstep (src/input.cpp:650)
Last command: neigh_modify every 1 delay ${neighborstep} check yes
ERROR on proc 14: Substitution for illegal variable neighborstep (src/input.cpp:650)
Last command: neigh_modify every 1 delay ${neighborstep} check yes
ERROR on proc 38: Substitution for illegal variable neighborstep (src/input.cpp:650)
Last command: neigh_modify every 1 delay ${neighborstep} check yes
ERROR on proc 45: Substitution for illegal variable neighborstep (src/input.cpp:650)
Last command: neigh_modify every 1 delay ${neighborstep} check yes
ERROR on proc 63: Substitution for illegal variable neighborstep (src/input.cpp:650)
Last command: neigh_modify every 1 delay ${neighborstep} check yes
ERROR on proc 54: Substitution for illegal variable neighborstep (src/input.cpp:650)
Last command: neigh_modify every 1 delay ${neighborstep} check yes
ERROR on proc 31: Substitution for illegal variable neighborstep (src/input.cpp:650)
Last command: neigh_modify every 1 delay ${neighborstep} check yes
ERROR on proc 15: Substitution for illegal variable neighborstep (src/input.cpp:650)
Last command: neigh_modify every 1 delay ${neighborstep} check yes
ERROR on proc 39: Substitution for illegal variable neighborstep (src/input.cpp:650)
Last command: neigh_modify every 1 delay ${neighborstep} check yes
ERROR on proc 46: Substitution for illegal variable neighborstep (src/input.cpp:650)
Last command: neigh_modify every 1 delay ${neighborstep} check yes
ERROR on proc 55: Substitution for illegal variable neighborstep (src/input.cpp:650)
Last command: neigh_modify every 1 delay ${neighborstep} check yes
ERROR on proc 47: Substitution for illegal variable neighborstep (src/input.cpp:650)
Last command: neigh_modify every 1 delay ${neighborstep} check yes
[cs364.hpc.nyu.edu:2722213] PMIX ERROR: UNREACHABLE in file server/pmix_server.c at line 2193
[cs364.hpc.nyu.edu:2722213] PMIX ERROR: UNREACHABLE in file server/pmix_server.c at line 2193
[cs364.hpc.nyu.edu:2722213] PMIX ERROR: UNREACHABLE in file server/pmix_server.c at line 2193
[cs364.hpc.nyu.edu:2722213] PMIX ERROR: UNREACHABLE in file server/pmix_server.c at line 2193
[cs364.hpc.nyu.edu:2722213] PMIX ERROR: UNREACHABLE in file server/pmix_server.c at line 2193
[cs364.hpc.nyu.edu:2722213] PMIX ERROR: UNREACHABLE in file server/pmix_server.c at line 2193
[cs364.hpc.nyu.edu:2722213] PMIX ERROR: UNREACHABLE in file server/pmix_server.c at line 2193
ERROR on proc 16: Substitution for illegal variable neighborstep (src/input.cpp:650)
Last command: neigh_modify every 1 delay ${neighborstep} check yes
ERROR on proc 18: Substitution for illegal variable neighborstep (src/input.cpp:650)
Last command: neigh_modify every 1 delay ${neighborstep} check yes
ERROR on proc 19: Substitution for illegal variable neighborstep (src/input.cpp:650)
Last command: neigh_modify every 1 delay ${neighborstep} check yes
ERROR on proc 20: Substitution for illegal variable neighborstep (src/input.cpp:650)
Last command: neigh_modify every 1 delay ${neighborstep} check yes
ERROR on proc 21: Substitution for illegal variable neighborstep (src/input.cpp:650)
Last command: neigh_modify every 1 delay ${neighborstep} check yes
ERROR on proc 17: Substitution for illegal variable neighborstep (src/input.cpp:650)
Last command: neigh_modify every 1 delay ${neighborstep} check yes
ERROR on proc 23: Substitution for illegal variable neighborstep (src/input.cpp:650)
Last command: neigh_modify every 1 delay ${neighborstep} check yes
ERROR on proc 22: Substitution for illegal variable neighborstep (src/input.cpp:650)
Last command: neigh_modify every 1 delay ${neighborstep} check yes
[cs364.hpc.nyu.edu:2722213] 63 more processes have sent help message help-mpi-api.txt / mpi-abort
[cs364.hpc.nyu.edu:2722213] Set MCA parameter "orte_base_help_aggregate" to 0 to see all help / error messages
LAMMPS (15 Sep 2022)
OMP_NUM_THREADS environment is not set. Defaulting to 1 thread. (src/comm.cpp:98)
  using 1 OpenMP thread(s) per MPI task
Reading restart file ...
  restart file = 15 Sep 2022, LAMMPS = 15 Sep 2022
  restoring atom style atomic from restart
  orthogonal box = (0 0 0) to (6.6943295 6.6943295 6.6943295)
  4 by 4 by 4 MPI processor grid
  restoring pair style lj/cut from restart
  360 atoms
  read_restart CPU = 0.022 seconds
Setting up equilibration run
Resetting global fix info from restart file:
  fix style: nvt, fix ID: 1
Generated 0 of 1 mixed pair_coeff terms from geometric mixing rule
All restart file global fix info was re-assigned
Neighbor list info ...
  update: every = 1 steps, delay = 20 steps, check = yes
  max neighbors/atom: 2000, page size: 100000
  master list distance cutoff = 3
  ghost atom cutoff = 3
  binsize = 1.5, bins = 5 5 5
  1 neighbor lists, perpetual/occasional/extra = 1 0 0
  (1) pair lj/cut, perpetual
      attributes: half, newton on
      pair build: half/bin/atomonly/newton
      stencil: half/bin/3d
      bin: standard
Setting up Verlet run ...
  Unit style    : lj
  Current step  : 0
  Time step     : 0.002
Per MPI rank memory allocation (min/avg/max) = 2.981 | 2.981 | 2.981 Mbytes
   Step          Temp          E_pair         E_mol          TotEng         Press     
         0   1.4149323     -5.1879447      0             -3.0714417      15.326896    
      1000   1.5139727     -5.3047098      0             -3.0400589      14.716429    
      2000   1.5202364     -5.5007134      0             -3.2266931      13.730219    
      2500   1.4785968     -5.168848       0             -2.9571136      15.684258    
Loop time of 0.315705 on 64 procs for 2500 steps with 360 atoms

Performance: 1368365.232 tau/day, 7918.780 timesteps/s, 2.851 Matom-step/s
99.3% CPU use with 64 MPI tasks x 1 OpenMP threads

MPI task timing breakdown:
Section |  min time  |  avg time  |  max time  |%varavg| %total
---------------------------------------------------------------
Pair    | 0.0051717  | 0.0063446  | 0.0073925  |   0.6 |  2.01
Neigh   | 0.0011872  | 0.001342   | 0.001477   |   0.2 |  0.43
Comm    | 0.13703    | 0.17526    | 0.20761    |   4.7 | 55.51
Output  | 0.036812   | 0.078385   | 0.12953    |   9.9 | 24.83
Modify  | 0.026554   | 0.032767   | 0.038267   |   1.7 | 10.38
Other   |            | 0.0216     |            |       |  6.84

Nlocal:          5.625 ave           9 max           3 min
Histogram: 1 9 0 23 0 18 7 0 5 1
Nghost:        541.516 ave         558 max         525 min
Histogram: 4 2 7 8 11 9 13 5 3 2
Neighs:        325.578 ave         489 max         157 min
Histogram: 1 3 6 10 13 13 4 8 1 5

Total # of neighbors = 20837
Ave neighs/atom = 57.880556
Neighbor list builds = 87
Dangerous builds = 0
Total wall time: 0:00:01
LAMMPS (15 Sep 2022)
OMP_NUM_THREADS environment is not set. Defaulting to 1 thread. (src/comm.cpp:98)
  using 1 OpenMP thread(s) per MPI task
Reading restart file ...
  restart file = 15 Sep 2022, LAMMPS = 15 Sep 2022
  restoring atom style atomic from restart
  orthogonal box = (0 0 0) to (6.6943295 6.6943295 6.6943295)
  4 by 4 by 4 MPI processor grid
  restoring pair style lj/cut from restart
  360 atoms
  read_restart CPU = 0.033 seconds
Setting up equilibration run
Resetting global fix info from restart file:
  fix style: nvt, fix ID: 1
Generated 0 of 1 mixed pair_coeff terms from geometric mixing rule
All restart file global fix info was re-assigned
Neighbor list info ...
  update: every = 1 steps, delay = 20 steps, check = yes
  max neighbors/atom: 2000, page size: 100000
  master list distance cutoff = 3
  ghost atom cutoff = 3
  binsize = 1.5, bins = 5 5 5
  1 neighbor lists, perpetual/occasional/extra = 1 0 0
  (1) pair lj/cut, perpetual
      attributes: half, newton on
      pair build: half/bin/atomonly/newton
      stencil: half/bin/3d
      bin: standard
Setting up Verlet run ...
  Unit style    : lj
  Current step  : 0
  Time step     : 0.002
Per MPI rank memory allocation (min/avg/max) = 2.981 | 2.981 | 2.981 Mbytes
   Step          Temp          E_pair         E_mol          TotEng         Press     
         0   1.0406923     -5.9300831      0             -4.373381       10.429671    
      2000   1.0341019     -6.1030799      0             -4.5562358      9.5397468    
      4000   0.98952364    -6.1818342      0             -4.7016718      8.7856223    
      6000   1.0579971     -6.0582559      0             -4.4756686      9.6506896    
      8000   1.0791505     -6.0262002      0             -4.4119709      9.89608      
     10000   0.99371428    -6.1012954      0             -4.6148644      9.5179803    
     12000   1.0454102     -5.9611631      0             -4.3974036      10.310631    
     12500   0.95393877    -6.0078828      0             -4.5809494      9.8908798    
Loop time of 0.959424 on 64 procs for 12500 steps with 360 atoms

Performance: 2251351.383 tau/day, 13028.654 timesteps/s, 4.690 Matom-step/s
99.5% CPU use with 64 MPI tasks x 1 OpenMP threads

MPI task timing breakdown:
Section |  min time  |  avg time  |  max time  |%varavg| %total
---------------------------------------------------------------
Pair    | 0.026595   | 0.030633   | 0.033502   |   0.9 |  3.19
Neigh   | 0.0047662  | 0.005236   | 0.0056976  |   0.3 |  0.55
Comm    | 0.59705    | 0.64485    | 0.68338    |   2.7 | 67.21
Output  | 0.052079   | 0.094644   | 0.14686    |   9.2 |  9.86
Modify  | 0.090711   | 0.11893    | 0.13978    |   4.2 | 12.40
Other   |            | 0.06512    |            |       |  6.79

Nlocal:          5.625 ave           8 max           2 min
Histogram: 1 2 0 7 0 17 24 0 9 4
Nghost:        537.891 ave         554 max         525 min
Histogram: 3 4 6 14 11 11 11 1 2 1
Neighs:        324.297 ave         466 max         124 min
Histogram: 2 0 4 6 7 10 17 9 7 2

Total # of neighbors = 20755
Ave neighs/atom = 57.652778
Neighbor list builds = 343
Dangerous builds = 0
Total wall time: 0:00:02
LAMMPS (15 Sep 2022)
OMP_NUM_THREADS environment is not set. Defaulting to 1 thread. (src/comm.cpp:98)
  using 1 OpenMP thread(s) per MPI task
Reading restart file ...
  restart file = 15 Sep 2022, LAMMPS = 15 Sep 2022
  restoring atom style atomic from restart
  orthogonal box = (0 0 0) to (6.6943295 6.6943295 6.6943295)
  4 by 4 by 4 MPI processor grid
  restoring pair style lj/cut from restart
  360 atoms
  read_restart CPU = 0.029 seconds
Setting up equilibration run
Resetting global fix info from restart file:
  fix style: nvt, fix ID: 1
Generated 0 of 1 mixed pair_coeff terms from geometric mixing rule
All restart file global fix info was re-assigned
Neighbor list info ...
  update: every = 1 steps, delay = 25 steps, check = yes
  max neighbors/atom: 2000, page size: 100000
  master list distance cutoff = 3
  ghost atom cutoff = 3
  binsize = 1.5, bins = 5 5 5
  1 neighbor lists, perpetual/occasional/extra = 1 0 0
  (1) pair lj/cut, perpetual
      attributes: half, newton on
      pair build: half/bin/atomonly/newton
      stencil: half/bin/3d
      bin: standard
Setting up Verlet run ...
  Unit style    : lj
  Current step  : 0
  Time step     : 0.002
Per MPI rank memory allocation (min/avg/max) = 2.981 | 2.981 | 2.981 Mbytes
   Step          Temp          E_pair         E_mol          TotEng         Press     
         0   0.93423452    -6.1498362      0             -4.752377       9.0307119    
      5000   0.87411037    -6.1794706      0             -4.8719472      8.7399536    
     10000   0.96219817    -6.1750635      0             -4.7357754      8.9516853    
     15000   0.91729467    -6.1129638      0             -4.7408438      9.2951983    
     20000   0.89753553    -6.1589953      0             -4.8164318      8.8162513    
     25000   0.8911183     -6.1625513      0             -4.8295868      8.7509411    
     30000   0.89217543    -6.0817804      0             -4.7472347      9.3920743    
     35000   0.86627537    -6.2051666      0             -4.909363       8.6649288    
     37500   0.91871363    -6.2145897      0             -4.8403473      8.4647161    
Loop time of 2.52083 on 64 procs for 37500 steps with 360 atoms

Performance: 2570580.696 tau/day, 14876.046 timesteps/s, 5.355 Matom-step/s
99.6% CPU use with 64 MPI tasks x 1 OpenMP threads

MPI task timing breakdown:
Section |  min time  |  avg time  |  max time  |%varavg| %total
---------------------------------------------------------------
Pair    | 0.080923   | 0.091396   | 0.10321    |   1.6 |  3.63
Neigh   | 0.01357    | 0.014666   | 0.016155   |   0.5 |  0.58
Comm    | 1.7305     | 1.829      | 1.8963     |   3.5 | 72.55
Output  | 0.068987   | 0.11349    | 0.16806    |   8.7 |  4.50
Modify  | 0.27244    | 0.34966    | 0.41389    |   7.5 | 13.87
Other   |            | 0.1226     |            |       |  4.87

Nlocal:          5.625 ave           9 max           3 min
Histogram: 2 11 0 20 0 14 12 0 3 2
Nghost:        537.531 ave         554 max         520 min
Histogram: 3 2 7 7 10 10 11 7 3 4
Neighs:        325.359 ave         510 max         159 min
Histogram: 2 4 9 14 9 6 9 6 3 2

Total # of neighbors = 20823
Ave neighs/atom = 57.841667
Neighbor list builds = 964
Dangerous builds = 1
Total wall time: 0:00:03
LAMMPS (15 Sep 2022)
OMP_NUM_THREADS environment is not set. Defaulting to 1 thread. (src/comm.cpp:98)
  using 1 OpenMP thread(s) per MPI task
Reading restart file ...
  restart file = 15 Sep 2022, LAMMPS = 15 Sep 2022
  restoring atom style atomic from restart
  orthogonal box = (0 0 0) to (6.6943295 6.6943295 6.6943295)
  4 by 4 by 4 MPI processor grid
  restoring pair style lj/cut from restart
  360 atoms
  read_restart CPU = 0.026 seconds
Setting up equilibration run
Resetting global fix info from restart file:
  fix style: nvt, fix ID: 1
Generated 0 of 1 mixed pair_coeff terms from geometric mixing rule
All restart file global fix info was re-assigned
Neighbor list info ...
  update: every = 1 steps, delay = 25 steps, check = yes
  max neighbors/atom: 2000, page size: 100000
  master list distance cutoff = 3
  ghost atom cutoff = 3
  binsize = 1.5, bins = 5 5 5
  1 neighbor lists, perpetual/occasional/extra = 1 0 0
  (1) pair lj/cut, perpetual
      attributes: half, newton on
      pair build: half/bin/atomonly/newton
      stencil: half/bin/3d
      bin: standard
Setting up Verlet run ...
  Unit style    : lj
  Current step  : 0
  Time step     : 0.002
Per MPI rank memory allocation (min/avg/max) = 2.981 | 2.981 | 2.981 Mbytes
   Step          Temp          E_pair         E_mol          TotEng         Press     
         0   0.83163238    -6.3268972      0             -5.0829137      7.6448683    
      5000   0.80404783    -6.3879417      0             -5.1852202      7.3053078    
     10000   0.75494082    -6.373077       0             -5.2438113      7.2967976    
     15000   0.86855058    -6.3479041      0             -5.0486971      7.6605633    
     20000   0.84520807    -6.3191852      0             -5.0548947      8.072753     
     25000   0.73894819    -6.3625328      0             -5.2571895      7.2487321    
     30000   0.76490728    -6.31388        0             -5.1697062      7.8478957    
     35000   0.79290208    -6.3277968      0             -5.1417474      7.6461553    
     37500   0.7563597     -6.3043336      0             -5.1729455      7.8244064    
Loop time of 2.50652 on 64 procs for 37500 steps with 360 atoms

Performance: 2585256.480 tau/day, 14960.975 timesteps/s, 5.386 Matom-step/s
99.6% CPU use with 64 MPI tasks x 1 OpenMP threads

MPI task timing breakdown:
Section |  min time  |  avg time  |  max time  |%varavg| %total
---------------------------------------------------------------
Pair    | 0.080653   | 0.0912     | 0.10015    |   1.5 |  3.64
Neigh   | 0.012367   | 0.013626   | 0.015133   |   0.4 |  0.54
Comm    | 1.7208     | 1.8181     | 1.8927     |   3.4 | 72.54
Output  | 0.063258   | 0.10759    | 0.16183    |   8.9 |  4.29
Modify  | 0.25762    | 0.34319    | 0.4079     |   7.5 | 13.69
Other   |            | 0.1328     |            |       |  5.30

Nlocal:          5.625 ave           8 max           3 min
Histogram: 1 0 12 0 15 0 21 0 12 3
Nghost:        535.375 ave         545 max         525 min
Histogram: 3 2 7 3 13 10 11 6 1 8
Neighs:        324.547 ave         483 max         180 min
Histogram: 5 3 6 10 11 10 7 5 4 3

Total # of neighbors = 20771
Ave neighs/atom = 57.697222
Neighbor list builds = 896
Dangerous builds = 0
Total wall time: 0:00:04
LAMMPS (15 Sep 2022)
OMP_NUM_THREADS environment is not set. Defaulting to 1 thread. (src/comm.cpp:98)
  using 1 OpenMP thread(s) per MPI task
Reading restart file ...
  restart file = 15 Sep 2022, LAMMPS = 15 Sep 2022
  restoring atom style atomic from restart
  orthogonal box = (0 0 0) to (6.6943295 6.6943295 6.6943295)
  4 by 4 by 4 MPI processor grid
  restoring pair style lj/cut from restart
  360 atoms
  read_restart CPU = 0.024 seconds
Setting up equilibration run
Resetting global fix info from restart file:
  fix style: nvt, fix ID: 1
Generated 0 of 1 mixed pair_coeff terms from geometric mixing rule
All restart file global fix info was re-assigned
Neighbor list info ...
  update: every = 1 steps, delay = 25 steps, check = yes
  max neighbors/atom: 2000, page size: 100000
  master list distance cutoff = 3
  ghost atom cutoff = 3
  binsize = 1.5, bins = 5 5 5
  1 neighbor lists, perpetual/occasional/extra = 1 0 0
  (1) pair lj/cut, perpetual
      attributes: half, newton on
      pair build: half/bin/atomonly/newton
      stencil: half/bin/3d
      bin: standard
Setting up Verlet run ...
  Unit style    : lj
  Current step  : 0
  Time step     : 0.003
Per MPI rank memory allocation (min/avg/max) = 2.981 | 2.981 | 2.981 Mbytes
   Step          Temp          E_pair         E_mol          TotEng         Press     
         0   0.66499813    -6.5254771      0             -5.5307507      6.1581499    
      6000   0.73075993    -6.4423472      0             -5.3492522      6.9166609    
     12000   0.70558175    -6.6264851      0             -5.5710524      5.9172252    
     18000   0.67680207    -6.5384606      0             -5.5260775      6.3861597    
     24000   0.64706811    -6.5575897      0             -5.5896837      6.1613376    
     30000   0.68984317    -6.550282       0             -5.5183915      6.1017484    
     36000   0.71910057    -6.5084669      0             -5.4328123      6.5167402    
     42000   0.64869759    -6.506298       0             -5.5359545      6.4132998    
     45000   0.78303568    -6.5076937      0             -5.3364028      6.7524426    
Loop time of 2.94392 on 64 procs for 45000 steps with 360 atoms

Performance: 3962057.867 tau/day, 15285.717 timesteps/s, 5.503 Matom-step/s
99.6% CPU use with 64 MPI tasks x 1 OpenMP threads

MPI task timing breakdown:
Section |  min time  |  avg time  |  max time  |%varavg| %total
---------------------------------------------------------------
Pair    | 0.096408   | 0.11136    | 0.1286     |   1.9 |  3.78
Neigh   | 0.019941   | 0.022193   | 0.024445   |   0.6 |  0.75
Comm    | 2.0851     | 2.2013     | 2.2899     |   4.0 | 74.78
Output  | 0.068053   | 0.11275    | 0.16757    |   8.8 |  3.83
Modify  | 0.31687    | 0.40982    | 0.48906    |   8.4 | 13.92
Other   |            | 0.08647    |            |       |  2.94

Nlocal:          5.625 ave           9 max           4 min
Histogram: 10 0 22 0 19 0 9 0 3 1
Nghost:        537.375 ave         551 max         527 min
Histogram: 5 3 12 8 10 12 4 7 1 2
Neighs:         326.25 ave         542 max         201 min
Histogram: 6 10 13 10 7 9 3 4 1 1

Total # of neighbors = 20880
Ave neighs/atom = 58
Neighbor list builds = 1474
Dangerous builds = 117
Total wall time: 0:00:05
LAMMPS (15 Sep 2022)
OMP_NUM_THREADS environment is not set. Defaulting to 1 thread. (src/comm.cpp:98)
  using 1 OpenMP thread(s) per MPI task
Reading restart file ...
  restart file = 15 Sep 2022, LAMMPS = 15 Sep 2022
  restoring atom style atomic from restart
  orthogonal box = (0 0 0) to (6.6943295 6.6943295 6.6943295)
  4 by 4 by 4 MPI processor grid
  restoring pair style lj/cut from restart
  360 atoms
  read_restart CPU = 0.012 seconds
Setting up equilibration run
Resetting global fix info from restart file:
  fix style: nvt, fix ID: 1
Generated 0 of 1 mixed pair_coeff terms from geometric mixing rule
All restart file global fix info was re-assigned
Neighbor list info ...
  update: every = 1 steps, delay = 25 steps, check = yes
  max neighbors/atom: 2000, page size: 100000
  master list distance cutoff = 3
  ghost atom cutoff = 3
  binsize = 1.5, bins = 5 5 5
  1 neighbor lists, perpetual/occasional/extra = 1 0 0
  (1) pair lj/cut, perpetual
      attributes: half, newton on
      pair build: half/bin/atomonly/newton
      stencil: half/bin/3d
      bin: standard
Setting up Verlet run ...
  Unit style    : lj
  Current step  : 0
  Time step     : 0.003
Per MPI rank memory allocation (min/avg/max) = 2.981 | 2.981 | 2.981 Mbytes
   Step          Temp          E_pair         E_mol          TotEng         Press     
         0   0.62954343    -6.5895358      0             -5.6478437      5.9849929    
     70000   0.65594829    -6.5017365      0             -5.5205472      6.4500901    
     87500   0.64677008    -6.6514046      0             -5.6839444      5.5467571    
Loop time of 5.5968 on 64 procs for 87500 steps with 360 atoms

Performance: 4052317.566 tau/day, 15633.941 timesteps/s, 5.628 Matom-step/s
99.6% CPU use with 64 MPI tasks x 1 OpenMP threads

MPI task timing breakdown:
Section |  min time  |  avg time  |  max time  |%varavg| %total
---------------------------------------------------------------
Pair    | 0.1955     | 0.21542    | 0.25647    |   2.4 |  3.85
Neigh   | 0.037468   | 0.041289   | 0.045606   |   0.8 |  0.74
Comm    | 4.0118     | 4.2041     | 4.3735     |   5.1 | 75.12
Output  | 0.12355    | 0.16868    | 0.22388    |   7.2 |  3.01
Modify  | 0.60388    | 0.7897     | 0.93475    |  11.6 | 14.11
Other   |            | 0.1776     |            |       |  3.17

Nlocal:          5.625 ave           8 max           1 min
Histogram: 1 0 1 0 7 19 0 21 13 2
Nghost:        534.312 ave         544 max         525 min
Histogram: 6 5 5 5 13 7 10 5 5 3
Neighs:        324.719 ave         520 max          60 min
Histogram: 1 1 0 4 14 16 15 9 3 1

Total # of neighbors = 20782
Ave neighs/atom = 57.727778
Neighbor list builds = 2746
Dangerous builds = 123
Total wall time: 0:00:07
LAMMPS (15 Sep 2022)
OMP_NUM_THREADS environment is not set. Defaulting to 1 thread. (src/comm.cpp:98)
  using 1 OpenMP thread(s) per MPI task
Reading restart file ...
  restart file = 15 Sep 2022, LAMMPS = 15 Sep 2022
  restoring atom style atomic from restart
  orthogonal box = (0 0 0) to (6.6943295 6.6943295 6.6943295)
  4 by 4 by 4 MPI processor grid
  restoring pair style lj/cut from restart
  360 atoms
  read_restart CPU = 0.010 seconds
Setting up equilibration run
Resetting global fix info from restart file:
  fix style: nvt, fix ID: 1
Generated 0 of 1 mixed pair_coeff terms from geometric mixing rule
All restart file global fix info was re-assigned
Neighbor list info ...
  update: every = 1 steps, delay = 25 steps, check = yes
  max neighbors/atom: 2000, page size: 100000
  master list distance cutoff = 3
  ghost atom cutoff = 3
  binsize = 1.5, bins = 5 5 5
  1 neighbor lists, perpetual/occasional/extra = 1 0 0
  (1) pair lj/cut, perpetual
      attributes: half, newton on
      pair build: half/bin/atomonly/newton
      stencil: half/bin/3d
      bin: standard
Setting up Verlet run ...
  Unit style    : lj
  Current step  : 0
  Time step     : 0.003
Per MPI rank memory allocation (min/avg/max) = 2.981 | 2.981 | 2.981 Mbytes
   Step          Temp          E_pair         E_mol          TotEng         Press     
         0   0.58137528    -6.6533092      0             -5.7836687      5.4619007    
     50000   0.60526175    -6.7168583      0             -5.8114876      5.0837991    
    100000   0.5985684     -6.7387982      0             -5.8434397      4.8317423    
    150000   0.57844508    -6.7368861      0             -5.8716286      4.7343657    
    200000   0.63205991    -6.6392937      0             -5.6938374      5.6511591    
    250000   0.56216922    -6.726659       0             -5.8857476      4.8460288    
Loop time of 15.6471 on 64 procs for 250000 steps with 360 atoms

Performance: 4141353.125 tau/day, 15977.443 timesteps/s, 5.752 Matom-step/s
99.7% CPU use with 64 MPI tasks x 1 OpenMP threads

MPI task timing breakdown:
Section |  min time  |  avg time  |  max time  |%varavg| %total
---------------------------------------------------------------
Pair    | 0.54571    | 0.61631    | 0.69803    |   4.1 |  3.94
Neigh   | 0.10385    | 0.11238    | 0.11973    |   1.1 |  0.72
Comm    | 11.524     | 11.959     | 12.417     |   8.4 | 76.43
Output  | 0.10767    | 0.15587    | 0.24832    |   8.2 |  1.00
Modify  | 1.7428     | 2.2636     | 2.6904     |  19.8 | 14.47
Other   |            | 0.5398     |            |       |  3.45

Nlocal:          5.625 ave           8 max           3 min
Histogram: 4 0 4 0 20 0 22 0 12 2
Nghost:        537.094 ave         552 max         526 min
Histogram: 2 9 7 14 7 11 9 1 2 2
Neighs:        324.688 ave         442 max         143 min
Histogram: 2 3 0 5 9 11 13 8 7 6

Total # of neighbors = 20780
Ave neighs/atom = 57.722222
Neighbor list builds = 7481
Dangerous builds = 157
Total wall time: 0:00:16
LAMMPS (15 Sep 2022)
OMP_NUM_THREADS environment is not set. Defaulting to 1 thread. (src/comm.cpp:98)
  using 1 OpenMP thread(s) per MPI task
Reading restart file ...
  restart file = 15 Sep 2022, LAMMPS = 15 Sep 2022
  restoring atom style atomic from restart
  orthogonal box = (0 0 0) to (6.6943295 6.6943295 6.6943295)
  4 by 4 by 4 MPI processor grid
  restoring pair style lj/cut from restart
  360 atoms
  read_restart CPU = 0.009 seconds
Setting up equilibration run
Resetting global fix info from restart file:
  fix style: nvt, fix ID: 1
Generated 0 of 1 mixed pair_coeff terms from geometric mixing rule
All restart file global fix info was re-assigned
Neighbor list info ...
  update: every = 1 steps, delay = 25 steps, check = yes
  max neighbors/atom: 2000, page size: 100000
  master list distance cutoff = 3
  ghost atom cutoff = 3
  binsize = 1.5, bins = 5 5 5
  1 neighbor lists, perpetual/occasional/extra = 1 0 0
  (1) pair lj/cut, perpetual
      attributes: half, newton on
      pair build: half/bin/atomonly/newton
      stencil: half/bin/3d
      bin: standard
Setting up Verlet run ...
  Unit style    : lj
  Current step  : 0
  Time step     : 0.003
Per MPI rank memory allocation (min/avg/max) = 2.981 | 2.981 | 2.981 Mbytes
   Step          Temp          E_pair         E_mol          TotEng         Press     
         0   0.53828416    -6.8757992      0             -6.0706158      3.9402534    
     30000   0.53951798    -6.7802184      0             -5.9731894      4.5665331    
     60000   0.55162707    -6.8468817      0             -6.0217396      4.2618668    
     90000   0.51922689    -6.8059194      0             -6.0292425      4.5241435    
    120000   0.57247824    -6.8050955      0             -5.9487635      4.4147366    
    150000   0.58507097    -6.7803008      0             -5.9051322      4.6834499    
    180000   0.54055733    -6.7672397      0             -5.9586561      4.7128946    
    210000   0.51534477    -6.8403457      0             -6.0694758      4.3765856    
    240000   0.57942073    -6.8184698      0             -5.9517529      4.4659498    
    270000   0.56629822    -6.8499736      0             -6.0028858      4.1947429    
    300000   0.52846599    -6.8217139      0             -6.0312169      4.417647     
    330000   0.54965639    -6.8450179      0             -6.0228236      4.2398764    
    360000   0.58755601    -6.8491378      0             -5.970252       4.3045288    
    390000   0.55416152    -6.8756717      0             -6.0467385      3.9714585    
    420000   0.58302808    -6.8070268      0             -5.934914       4.4691074    
    450000   0.55245647    -6.7693475      0             -5.9429647      4.6365909    
    480000   0.57898852    -6.8621957      0             -5.9961253      4.1746054    
    510000   0.53287221    -6.7465808      0             -5.9494928      4.8609702    
    540000   0.55674406    -6.8062695      0             -5.9734732      4.3997758    
    570000   0.48741616    -6.7780381      0             -6.0489448      4.5546104    
    600000   0.49898469    -6.843754       0             -6.0973561      4.1858652    
    630000   0.52198372    -6.7811973      0             -6.0003966      4.5206414    
    660000   0.54991385    -6.8473589      0             -6.0247794      4.2211373    
    690000   0.55727848    -6.7629617      0             -5.9293659      4.6940165    
    720000   0.51665827    -6.7974068      0             -6.0245722      4.4617115    
    750000   0.58501702    -6.7838238      0             -5.9087359      4.5433009    
Loop time of 46.054 on 64 procs for 750000 steps with 360 atoms

Performance: 4221130.780 tau/day, 16285.227 timesteps/s, 5.863 Matom-step/s
99.7% CPU use with 64 MPI tasks x 1 OpenMP threads

MPI task timing breakdown:
Section |  min time  |  avg time  |  max time  |%varavg| %total
---------------------------------------------------------------
Pair    | 1.6847     | 1.8341     | 2.1602     |   6.5 |  3.98
Neigh   | 0.29511    | 0.31754    | 0.33807    |   1.7 |  0.69
Comm    | 33.984     | 35.351     | 36.752     |  14.6 | 76.76
Output  | 0.123      | 0.17152    | 0.2319     |   7.6 |  0.37
Modify  | 5.1134     | 6.6311     | 7.8604     |  34.7 | 14.40
Other   |            | 1.749      |            |       |  3.80

Nlocal:          5.625 ave           8 max           4 min
Histogram: 7 0 25 0 0 18 0 13 0 1
Nghost:        535.703 ave         550 max         525 min
Histogram: 7 5 8 5 17 5 6 6 4 1
Neighs:        325.359 ave         441 max         215 min
Histogram: 5 4 5 13 11 8 3 3 6 6

Total # of neighbors = 20823
Ave neighs/atom = 57.841667
Neighbor list builds = 21226
Dangerous builds = 145
Total wall time: 0:00:48
LAMMPS (15 Sep 2022)
OMP_NUM_THREADS environment is not set. Defaulting to 1 thread. (src/comm.cpp:98)
  using 1 OpenMP thread(s) per MPI task
Reading restart file ...
  restart file = 15 Sep 2022, LAMMPS = 15 Sep 2022
  restoring atom style atomic from restart
  orthogonal box = (0 0 0) to (6.6943295 6.6943295 6.6943295)
  4 by 4 by 4 MPI processor grid
  restoring pair style lj/cut from restart
  360 atoms
  read_restart CPU = 0.011 seconds
Setting up equilibration run
Resetting global fix info from restart file:
  fix style: nvt, fix ID: 1
Generated 0 of 1 mixed pair_coeff terms from geometric mixing rule
All restart file global fix info was re-assigned
Neighbor list info ...
  update: every = 1 steps, delay = 25 steps, check = yes
  max neighbors/atom: 2000, page size: 100000
  master list distance cutoff = 3
  ghost atom cutoff = 3
  binsize = 1.5, bins = 5 5 5
  1 neighbor lists, perpetual/occasional/extra = 1 0 0
  (1) pair lj/cut, perpetual
      attributes: half, newton on
      pair build: half/bin/atomonly/newton
      stencil: half/bin/3d
      bin: standard
Setting up Verlet run ...
  Unit style    : lj
  Current step  : 0
  Time step     : 0.003
Per MPI rank memory allocation (min/avg/max) = 2.981 | 2.981 | 2.981 Mbytes
   Step          Temp          E_pair         E_mol          TotEng         Press     
         0   0.50782204    -6.8903085      0             -6.1306914      3.8897998    
    100000   0.51055716    -6.9096211      0             -6.1459126      3.6476891    
    200000   0.51430562    -6.8734998      0             -6.1041843      3.9937714    
    300000   0.53733794    -6.9049767      0             -6.1012087      3.7484027    
    400000   0.49632023    -6.8901641      0             -6.1477518      3.7660226    
    500000   0.5188527     -6.8989617      0             -6.1228445      3.7308719    
    600000   0.50157025    -6.9284612      0             -6.1781957      3.5954967    
    700000   0.49982356    -6.9402498      0             -6.192597       3.5689647    
    800000   0.51633837    -6.8974153      0             -6.1250592      3.9663047    
    900000   0.50514393    -6.9193618      0             -6.1637507      3.6872469    
   1000000   0.51272847    -6.9810708      0             -6.2141144      3.3543544    
   1100000   0.49997976    -6.8567822      0             -6.1088958      4.0302902    
   1200000   0.47905652    -6.929716       0             -6.2131273      3.7784148    
   1300000   0.44915229    -6.8309944      0             -6.1591374      4.1520203    
   1400000   0.50141274    -6.877182       0             -6.1271521      4.0008741    
   1500000   0.47366153    -6.9094653      0             -6.2009466      3.7053105    
   1600000   0.51037787    -6.9610608      0             -6.1976206      3.5649038    
   1700000   0.49841372    -6.9410026      0             -6.1954587      3.53412      
   1800000   0.50253178    -6.9250159      0             -6.1733121      3.7643415    
   1900000   0.5335925     -6.9421022      0             -6.1439368      3.6040319    
   2000000   0.5234171     -6.9539746      0             -6.1710299      3.4072361    
   2100000   0.49283239    -6.9146663      0             -6.1774712      3.7858817    
   2200000   0.49004475    -6.8768391      0             -6.1438138      3.8016356    
   2300000   0.48335629    -6.8812734      0             -6.158253       3.9536717    
   2400000   0.46095315    -6.908504       0             -6.2189949      3.7967264    
   2500000   0.47930228    -6.9507923      0             -6.233836       3.5103404    
Loop time of 154.072 on 64 procs for 2500000 steps with 360 atoms

Performance: 4205826.572 tau/day, 16226.183 timesteps/s, 5.841 Matom-step/s
99.7% CPU use with 64 MPI tasks x 1 OpenMP threads

MPI task timing breakdown:
Section |  min time  |  avg time  |  max time  |%varavg| %total
---------------------------------------------------------------
Pair    | 5.3427     | 6.0959     | 6.946      |  14.6 |  3.96
Neigh   | 0.90387    | 0.99456    | 1.0879     |   3.9 |  0.65
Comm    | 113.07     | 117.96     | 122.75     |  27.0 | 76.56
Output  | 0.12248    | 0.17127    | 0.23298    |   7.6 |  0.11
Modify  | 16.517     | 22.396     | 26.845     |  64.6 | 14.54
Other   |            | 6.459      |            |       |  4.19

Nlocal:          5.625 ave           9 max           2 min
Histogram: 1 4 7 0 14 22 0 13 2 1
Nghost:        538.656 ave         552 max         520 min
Histogram: 3 0 4 5 4 17 10 12 5 4
Neighs:        325.109 ave         526 max         130 min
Histogram: 2 5 5 7 9 17 11 4 3 1

Total # of neighbors = 20807
Ave neighs/atom = 57.797222
Neighbor list builds = 66501
Dangerous builds = 150
Total wall time: 0:02:35
LAMMPS (15 Sep 2022)
OMP_NUM_THREADS environment is not set. Defaulting to 1 thread. (src/comm.cpp:98)
  using 1 OpenMP thread(s) per MPI task
Reading restart file ...
  restart file = 15 Sep 2022, LAMMPS = 15 Sep 2022
  restoring atom style atomic from restart
  orthogonal box = (0 0 0) to (6.6943295 6.6943295 6.6943295)
  4 by 4 by 4 MPI processor grid
  restoring pair style lj/cut from restart
  360 atoms
  read_restart CPU = 0.010 seconds
Setting up equilibration run
Resetting global fix info from restart file:
  fix style: nvt, fix ID: 1
Generated 0 of 1 mixed pair_coeff terms from geometric mixing rule
All restart file global fix info was re-assigned
Neighbor list info ...
  update: every = 1 steps, delay = 25 steps, check = yes
  max neighbors/atom: 2000, page size: 100000
  master list distance cutoff = 3
  ghost atom cutoff = 3
  binsize = 1.5, bins = 5 5 5
  1 neighbor lists, perpetual/occasional/extra = 1 0 0
  (1) pair lj/cut, perpetual
      attributes: half, newton on
      pair build: half/bin/atomonly/newton
      stencil: half/bin/3d
      bin: standard
Setting up Verlet run ...
  Unit style    : lj
  Current step  : 0
  Time step     : 0.003
Per MPI rank memory allocation (min/avg/max) = 2.981 | 2.981 | 2.981 Mbytes
   Step          Temp          E_pair         E_mol          TotEng         Press     
         0   0.48143047    -6.9477261      0             -6.2275864      3.4486723    
    300000   0.46429599    -6.9553209      0             -6.2608115      3.5251111    
    600000   0.48956789    -6.9735718      0             -6.2412598      3.3870479    
    900000   0.48512435    -7.0076292      0             -6.281964       3.1037478    
   1200000   0.45089356    -6.9982415      0             -6.3237799      3.0907392    
   1500000   0.48115918    -6.9564656      0             -6.2367316      3.356593     
   1800000   0.47518852    -7.0328614      0             -6.3220586      3.0055876    
   2100000   0.45107285    -6.9736284      0             -6.2988986      3.3650897    
   2400000   0.47984349    -6.977576       0             -6.2598102      3.1869767    
   2700000   0.48498446    -6.9750042      0             -6.2495483      3.27286      
   3000000   0.47518425    -6.9916235      0             -6.280827       3.1446053    
   3300000   0.44736346    -7.0085966      0             -6.3394154      2.9949148    
   3600000   0.4672032     -6.973912       0             -6.2750539      3.2112851    
   3900000   0.47180231    -7.009748       0             -6.3040104      3.0856325    
   4200000   0.43214592    -6.9307753      0             -6.2843571      3.5389695    
   4500000   0.47016102    -7.006891       0             -6.3036085      3.098839     
   4800000   0.48183127    -7.0094501      0             -6.2887108      3.1498986    
   5100000   0.48291679    -6.9864362      0             -6.2640732      3.1657443    
   5400000   0.45115434    -6.919746       0             -6.2448943      3.6213795    
   5700000   0.48653621    -6.9700778      0             -6.2423007      3.3846732    
   6000000   0.46382007    -6.8781871      0             -6.1843895      3.7460814    
   6300000   0.45305       -7.0140748      0             -6.3363875      2.9503687    
   6600000   0.47209928    -6.9638646      0             -6.2576828      3.0976134    
   6900000   0.49477555    -6.9808724      0             -6.2407706      3.3063316    
   7200000   0.48476311    -6.9371701      0             -6.2120452      3.5113979    
   7500000   0.49403619    -6.9472861      0             -6.2082903      3.5055954    
Loop time of 459.93 on 64 procs for 7500000 steps with 360 atoms

Performance: 4226731.779 tau/day, 16306.836 timesteps/s, 5.870 Matom-step/s
99.7% CPU use with 64 MPI tasks x 1 OpenMP threads

MPI task timing breakdown:
Section |  min time  |  avg time  |  max time  |%varavg| %total
---------------------------------------------------------------
Pair    | 15.852     | 18.221     | 21.466     |  27.7 |  3.96
Neigh   | 2.615      | 2.8808     | 3.1715     |   7.0 |  0.63
Comm    | 337.25     | 351.99     | 366.74     |  47.0 | 76.53
Output  | 0.12465    | 0.17427    | 0.23743    |   7.7 |  0.04
Modify  | 50.088     | 66.399     | 78.573     | 110.4 | 14.44
Other   |            | 20.26      |            |       |  4.41

Nlocal:          5.625 ave           9 max           3 min
Histogram: 3 6 0 20 0 22 11 0 0 2
Nghost:         538.25 ave         548 max         526 min
Histogram: 3 5 2 4 11 11 8 6 6 8
Neighs:        326.031 ave         535 max         178 min
Histogram: 4 5 8 13 13 11 6 2 0 2

Total # of neighbors = 20866
Ave neighs/atom = 57.961111
Neighbor list builds = 192737
Dangerous builds = 261
Total wall time: 0:07:41
LAMMPS (15 Sep 2022)
OMP_NUM_THREADS environment is not set. Defaulting to 1 thread. (src/comm.cpp:98)
  using 1 OpenMP thread(s) per MPI task
--------------------------------------------------------------------------
MPI_ABORT was invoked on rank 0 in communicator MPI_COMM_WORLD
with errorcode 1.

NOTE: invoking MPI_ABORT causes Open MPI to kill all MPI processes.
You may or may not see output from other processes, depending on
exactly when Open MPI kills them.
--------------------------------------------------------------------------
Reading restart file ...
ERROR on proc 0: Cannot open restart file equil/kalj_T0.45_n360_v300_100000000_1.final.lmprestart.100000000: No such file or directory (src/read_restart.cpp:113)
Last command: read_restart ${prevbasename}.final.lmprestart.${steps}
