LAMMPS (15 Sep 2022)
OMP_NUM_THREADS environment is not set. Defaulting to 1 thread. (src/comm.cpp:98)
  using 1 OpenMP thread(s) per MPI task
Lattice spacing in x,y,z = 1.4938016 1.4938016 1.4938016
Created orthogonal box = (0 0 0) to (6.6943295 6.6943295 6.6943295)
  3 by 4 by 4 MPI processor grid
Created 365 atoms
  using lattice units in orthogonal box = (0 0 0) to (6.6943295 6.6943295 6.6943295)
  create_atoms CPU = 0.001 seconds
Setting atom values ...
  77 settings made for type
5 atoms in group extra
Deleted 5 atoms, new total = 360
288 atoms in group typea
72 atoms in group typeb
Minimizing initial structure
Generated 0 of 1 mixed pair_coeff terms from geometric mixing rule
Neighbor list info ...
  update: every = 1 steps, delay = 0 steps, check = yes
  max neighbors/atom: 2000, page size: 100000
  master list distance cutoff = 3
  ghost atom cutoff = 3
  binsize = 1.5, bins = 5 5 5
  1 neighbor lists, perpetual/occasional/extra = 1 0 0
  (1) pair lj/cut, perpetual
      attributes: half, newton on
      pair build: half/bin/atomonly/newton
      stencil: half/bin/3d
      bin: standard
Setting up Verlet run ...
  Unit style    : lj
  Current step  : 0
  Time step     : 0.001
Per MPI rank memory allocation (min/avg/max) = 3.961 | 3.966 | 3.968 Mbytes
   Step          Temp          E_pair         E_mol          TotEng         Press     
         0   0              32.410909      0              32.410909      205.0504     
      1000   17.076923      6.6773211      0              32.221552      101.29743    
      2000   17.271043      6.3885181      0              32.223121      99.851136    
      3000   17.50477       6.0412939      0              32.225512      98.246522    
      4000   17.154332      6.5628326      0              32.222855      100.78241    
      5000   17.218257      6.4678966      0              32.223539      100.04143    
      6000   17.426114      6.1565077      0              32.22307       98.464215    
      7000   17.469025      6.0911277      0              32.221878      98.532725    
      8000   17.919346      5.4208089      0              32.225164      94.787881    
      9000   17.394722      6.2031788      0              32.222784      99.243548    
     10000   17.337491      6.2872555      0              32.221253      99.454811    
Loop time of 0.494358 on 48 procs for 10000 steps with 360 atoms

Performance: 1747720.139 tau/day, 20228.242 timesteps/s, 7.282 Matom-step/s
99.4% CPU use with 48 MPI tasks x 1 OpenMP threads

MPI task timing breakdown:
Section |  min time  |  avg time  |  max time  |%varavg| %total
---------------------------------------------------------------
Pair    | 0.033744   | 0.036101   | 0.039164   |   0.8 |  7.30
Neigh   | 0.010767   | 0.01138    | 0.012283   |   0.3 |  2.30
Comm    | 0.36563    | 0.37688    | 0.39137    |   1.1 | 76.24
Output  | 0.0096669  | 0.0096813  | 0.0097262  |   0.0 |  1.96
Modify  | 0.0019316  | 0.0021098  | 0.0024554  |   0.3 |  0.43
Other   |            | 0.05821    |            |       | 11.77

Nlocal:            7.5 ave          11 max           4 min
Histogram: 2 3 6 0 12 13 0 8 3 1
Nghost:        573.854 ave         592 max         556 min
Histogram: 3 4 3 11 3 7 5 5 2 5
Neighs:        431.792 ave         741 max         251 min
Histogram: 2 5 12 10 9 5 4 0 0 1

Total # of neighbors = 20726
Ave neighs/atom = 57.572222
Neighbor list builds = 606
Dangerous builds = 0
Total wall time: 0:00:01
ERROR on proc 0: Cannot open input script ../Inputs/anneal_3d_binary.lmpecho: No such file or directory (src/lammps.cpp:521)
Last command: (unknown)
--------------------------------------------------------------------------
MPI_ABORT was invoked on rank 0 in communicator MPI_COMM_WORLD
with errorcode 1.

NOTE: invoking MPI_ABORT causes Open MPI to kill all MPI processes.
You may or may not see output from other processes, depending on
exactly when Open MPI kills them.
--------------------------------------------------------------------------
[warn] Epoll MOD(1) on fd 72 failed.  Old events were 6; read change was 0 (none); write change was 2 (del): Bad file descriptor
[warn] Epoll MOD(4) on fd 72 failed.  Old events were 6; read change was 2 (del); write change was 0 (none): Bad file descriptor
ERROR on proc 0: Cannot open input script ../Inputs/anneal_3d_binary.lmpecho: No such file or directory (src/lammps.cpp:521)
Last command: (unknown)
--------------------------------------------------------------------------
MPI_ABORT was invoked on rank 0 in communicator MPI_COMM_WORLD
with errorcode 1.

NOTE: invoking MPI_ABORT causes Open MPI to kill all MPI processes.
You may or may not see output from other processes, depending on
exactly when Open MPI kills them.
--------------------------------------------------------------------------
[warn] Epoll MOD(1) on fd 36 failed.  Old events were 6; read change was 0 (none); write change was 2 (del): Bad file descriptor
[warn] Epoll MOD(4) on fd 36 failed.  Old events were 6; read change was 2 (del); write change was 0 (none): Bad file descriptor
ERROR on proc 0: Cannot open input script ../Inputs/anneal_3d_binary.lmpecho: No such file or directory (src/lammps.cpp:521)
Last command: (unknown)
--------------------------------------------------------------------------
MPI_ABORT was invoked on rank 0 in communicator MPI_COMM_WORLD
with errorcode 1.

NOTE: invoking MPI_ABORT causes Open MPI to kill all MPI processes.
You may or may not see output from other processes, depending on
exactly when Open MPI kills them.
--------------------------------------------------------------------------
--------------------------------------------------------------------------
MPI_ABORT was invoked on rank 0 in communicator MPI_COMM_WORLD
with errorcode 1.

NOTE: invoking MPI_ABORT causes Open MPI to kill all MPI processes.
You may or may not see output from other processes, depending on
exactly when Open MPI kills them.
--------------------------------------------------------------------------
ERROR on proc 0: Cannot open input script ../Inputs/anneal_3d_binary.lmpecho: No such file or directory (src/lammps.cpp:521)
Last command: (unknown)
[warn] Epoll MOD(1) on fd 36 failed.  Old events were 6; read change was 0 (none); write change was 2 (del): Bad file descriptor
[warn] Epoll MOD(4) on fd 36 failed.  Old events were 6; read change was 2 (del); write change was 0 (none): Bad file descriptor
ERROR on proc 0: Cannot open input script ../Inputs/anneal_3d_binary.lmpecho: No such file or directory (src/lammps.cpp:521)
Last command: (unknown)
--------------------------------------------------------------------------
MPI_ABORT was invoked on rank 0 in communicator MPI_COMM_WORLD
with errorcode 1.

NOTE: invoking MPI_ABORT causes Open MPI to kill all MPI processes.
You may or may not see output from other processes, depending on
exactly when Open MPI kills them.
--------------------------------------------------------------------------
[warn] Epoll MOD(1) on fd 36 failed.  Old events were 6; read change was 0 (none); write change was 2 (del): Bad file descriptor
[warn] Epoll MOD(4) on fd 36 failed.  Old events were 6; read change was 2 (del); write change was 0 (none): Bad file descriptor
ERROR on proc 0: Cannot open input script ../Inputs/anneal_3d_binary.lmpecho: No such file or directory (src/lammps.cpp:521)
Last command: (unknown)
--------------------------------------------------------------------------
MPI_ABORT was invoked on rank 0 in communicator MPI_COMM_WORLD
with errorcode 1.

NOTE: invoking MPI_ABORT causes Open MPI to kill all MPI processes.
You may or may not see output from other processes, depending on
exactly when Open MPI kills them.
--------------------------------------------------------------------------
[warn] Epoll MOD(1) on fd 44 failed.  Old events were 6; read change was 0 (none); write change was 2 (del): Bad file descriptor
[warn] Epoll MOD(4) on fd 44 failed.  Old events were 6; read change was 2 (del); write change was 0 (none): Bad file descriptor
--------------------------------------------------------------------------
MPI_ABORT was invoked on rank 0 in communicator MPI_COMM_WORLD
with errorcode 1.

NOTE: invoking MPI_ABORT causes Open MPI to kill all MPI processes.
You may or may not see output from other processes, depending on
exactly when Open MPI kills them.
--------------------------------------------------------------------------
ERROR on proc 0: Cannot open input script ../Inputs/anneal_3d_binary.lmpecho: No such file or directory (src/lammps.cpp:521)
Last command: (unknown)
ERROR on proc 0: Cannot open input script ../Inputs/anneal_3d_binary.lmpecho: No such file or directory (src/lammps.cpp:521)
Last command: (unknown)
--------------------------------------------------------------------------
MPI_ABORT was invoked on rank 0 in communicator MPI_COMM_WORLD
with errorcode 1.

NOTE: invoking MPI_ABORT causes Open MPI to kill all MPI processes.
You may or may not see output from other processes, depending on
exactly when Open MPI kills them.
--------------------------------------------------------------------------
[warn] Epoll MOD(1) on fd 36 failed.  Old events were 6; read change was 0 (none); write change was 2 (del): Bad file descriptor
[warn] Epoll MOD(4) on fd 36 failed.  Old events were 6; read change was 2 (del); write change was 0 (none): Bad file descriptor
ERROR on proc 0: Cannot open input script ../Inputs/anneal_3d_binary.lmpecho: No such file or directory (src/lammps.cpp:521)
Last command: (unknown)
--------------------------------------------------------------------------
MPI_ABORT was invoked on rank 0 in communicator MPI_COMM_WORLD
with errorcode 1.

NOTE: invoking MPI_ABORT causes Open MPI to kill all MPI processes.
You may or may not see output from other processes, depending on
exactly when Open MPI kills them.
--------------------------------------------------------------------------
[warn] Epoll MOD(1) on fd 38 failed.  Old events were 6; read change was 0 (none); write change was 2 (del): Bad file descriptor
[warn] Epoll MOD(4) on fd 38 failed.  Old events were 6; read change was 2 (del); write change was 0 (none): Bad file descriptor
ERROR on proc 0: Cannot open input script ../Inputs/anneal_3d_binary.lmpecho: No such file or directory (src/lammps.cpp:521)
Last command: (unknown)
--------------------------------------------------------------------------
MPI_ABORT was invoked on rank 0 in communicator MPI_COMM_WORLD
with errorcode 1.

NOTE: invoking MPI_ABORT causes Open MPI to kill all MPI processes.
You may or may not see output from other processes, depending on
exactly when Open MPI kills them.
--------------------------------------------------------------------------
[warn] Epoll MOD(1) on fd 36 failed.  Old events were 6; read change was 0 (none); write change was 2 (del): Bad file descriptor
[warn] Epoll MOD(4) on fd 36 failed.  Old events were 6; read change was 2 (del); write change was 0 (none): Bad file descriptor
--------------------------------------------------------------------------
MPI_ABORT was invoked on rank 0 in communicator MPI_COMM_WORLD
with errorcode 1.

NOTE: invoking MPI_ABORT causes Open MPI to kill all MPI processes.
You may or may not see output from other processes, depending on
exactly when Open MPI kills them.
--------------------------------------------------------------------------
ERROR on proc 0: Cannot open input script ../Inputs/anneal_3d_binary.lmpecho: No such file or directory (src/lammps.cpp:521)
Last command: (unknown)
[warn] Epoll MOD(1) on fd 62 failed.  Old events were 6; read change was 0 (none); write change was 2 (del): Bad file descriptor
[warn] Epoll MOD(4) on fd 62 failed.  Old events were 6; read change was 2 (del); write change was 0 (none): Bad file descriptor
