ITEM: TIMESTEP
100000
ITEM: NUMBER OF ATOMS
400
ITEM: BOX BOUNDS pp pp pp
0.0000000000000000e+00 2.1081851067789195e+01
0.0000000000000000e+00 2.1081851067789195e+01
-5.2704627669472992e-01 5.2704627669472992e-01
ITEM: ATOMS id type xs ys zs
224 1 0.0136673 0.0277377 0.5
258 1 0.075993 0.108277 0.5
102 1 0.037863 0.0686689 0.5
64 1 0.0983608 0.0620732 0.5
321 1 0.106774 0.0152405 0.5
103 1 0.104881 0.203562 0.5
287 1 0.0156247 0.179167 0.5
69 1 0.0904276 0.15647 0.5
78 1 0.0555876 0.206851 0.5
26 1 0.0120321 0.226008 0.5
245 1 0.0367299 0.133933 0.5
124 1 0.0955288 0.247143 0.5
136 1 0.0111494 0.332292 0.5
21 1 0.0482957 0.373993 0.5
231 1 0.0634385 0.303658 0.5
173 1 0.0485151 0.255214 0.5
191 1 0.108608 0.301775 0.5
363 1 0.0885401 0.346471 0.5
227 1 0.0727228 0.485863 0.5
113 1 0.122078 0.457299 0.5
39 1 0.0859653 0.404909 0.5
391 1 0.0207741 0.472223 0.5
255 1 0.0317539 0.41677 0.5
360 1 0.0483561 0.565974 0.5
226 1 0.0249958 0.519818 0.5
384 1 0.0805371 0.532854 0.5
215 1 0.00634001 0.594676 0.5
99 1 0.0953386 0.6097 0.5
205 1 0.119473 0.561168 0.5
193 1 0.0490235 0.613642 0.5
22 1 0.0246929 0.653284 0.5
389 1 0.0717901 0.659192 0.5
128 1 0.0352425 0.704035 0.5
195 1 0.0919255 0.716362 0.5
232 1 0.117288 0.65705 0.5
81 1 0.00295392 0.738065 0.5
264 1 0.0190299 0.836063 0.5
214 1 0.0837562 0.809343 0.5
273 1 0.12096 0.770652 0.5
400 1 0.0938628 0.859057 0.5
114 1 0.0356416 0.792688 0.5
284 1 0.0730129 0.763442 0.5
286 1 0.0504564 0.8707 0.5
74 1 0.0996618 0.959244 0.5
153 1 0.0657398 0.990792 0.5
328 1 0.0256837 0.970718 0.5
282 1 0.0924126 0.906516 0.5
56 1 0.0451393 0.922848 0.5
138 1 0.00426681 0.884844 0.5
82 1 0.195532 0.0591419 0.5
296 1 0.238256 0.0358389 0.5
251 1 0.152156 0.0224027 0.5
327 1 0.14654 0.0694626 0.5
398 1 0.174935 0.108878 0.5
387 1 0.124424 0.111581 0.5
107 1 0.196517 0.0109603 0.5
369 1 0.24641 0.0851253 0.5
8 1 0.208984 0.20048 0.5
84 1 0.156591 0.149203 0.5
98 1 0.207408 0.151215 0.5
76 1 0.15808 0.199181 0.5
329 1 0.204837 0.250637 0.5
216 1 0.243922 0.229033 0.5
324 1 0.239218 0.339735 0.5
252 1 0.187818 0.296961 0.5
289 1 0.148933 0.328897 0.5
170 1 0.158099 0.257996 0.5
151 1 0.201972 0.424653 0.5
166 1 0.234141 0.388928 0.5
275 1 0.156308 0.417787 0.5
335 1 0.214761 0.475101 0.5
241 1 0.166614 0.468554 0.5
35 1 0.189202 0.381068 0.5
171 1 0.142993 0.374778 0.5
356 1 0.246939 0.442516 0.5
341 1 0.192349 0.559029 0.5
201 1 0.231473 0.539237 0.5
228 1 0.155063 0.590867 0.5
126 1 0.182996 0.513579 0.5
18 1 0.128111 0.502877 0.5
115 1 0.235398 0.591009 0.5
222 1 0.194563 0.613554 0.5
377 1 0.190917 0.721704 0.5
121 1 0.147296 0.734459 0.5
302 1 0.156871 0.687935 0.5
220 1 0.205018 0.675551 0.5
182 1 0.237204 0.713805 0.5
40 1 0.157374 0.639601 0.5
217 1 0.246511 0.643227 0.5
281 1 0.207408 0.809476 0.5
127 1 0.166577 0.781975 0.5
349 1 0.249789 0.871955 0.5
342 1 0.216412 0.763495 0.5
235 1 0.170816 0.840316 0.5
250 1 0.130603 0.818284 0.5
177 1 0.201061 0.957523 0.5
168 1 0.149122 0.92977 0.5
116 1 0.150866 0.976719 0.5
240 1 0.142276 0.875229 0.5
283 1 0.242616 0.936635 0.5
38 1 0.193634 0.880401 0.5
338 1 0.238173 0.985194 0.5
304 1 0.332336 0.0455673 0.5
180 1 0.300346 0.00569068 0.5
334 1 0.300822 0.096111 0.5
213 1 0.340659 0.117269 0.5
122 1 0.282332 0.0463346 0.5
319 1 0.31195 0.224289 0.5
239 1 0.302762 0.147152 0.5
181 1 0.281945 0.189263 0.5
188 1 0.333477 0.183212 0.5
79 1 0.356277 0.243566 0.5
134 1 0.255461 0.136257 0.5
6 1 0.288128 0.265459 0.5
119 1 0.333822 0.356379 0.5
100 1 0.295034 0.312487 0.5
31 1 0.341383 0.307256 0.5
61 1 0.288256 0.360193 0.5
246 1 0.352025 0.443845 0.5
325 1 0.337014 0.489793 0.5
109 1 0.27553 0.408042 0.5
326 1 0.326896 0.404611 0.5
361 1 0.295046 0.46874 0.5
373 1 0.254834 0.499155 0.5
368 1 0.371875 0.393045 0.5
344 1 0.34094 0.562909 0.5
291 1 0.300009 0.518594 0.5
359 1 0.278693 0.609907 0.5
395 1 0.340696 0.606638 0.5
276 1 0.284014 0.561836 0.5
268 1 0.356569 0.652198 0.5
383 1 0.307369 0.64481 0.5
396 1 0.281093 0.682745 0.5
203 1 0.356558 0.727925 0.5
12 1 0.309291 0.734677 0.5
322 1 0.292923 0.839559 0.5
244 1 0.355918 0.777937 0.5
27 1 0.312222 0.784758 0.5
315 1 0.343903 0.836066 0.5
154 1 0.268904 0.763152 0.5
295 1 0.249599 0.820055 0.5
176 1 0.353888 0.996956 0.5
386 1 0.291357 0.910569 0.5
192 1 0.326328 0.8811 0.5
274 1 0.278581 0.964989 0.5
311 1 0.322879 0.948544 0.5
123 1 0.37056 0.882041 0.5
317 1 0.396357 0.0182241 0.5
243 1 0.464717 0.0422653 0.5
199 1 0.412688 0.101851 0.5
16 1 0.464276 0.106458 0.5
91 1 0.422774 0.053513 0.5
388 1 0.380211 0.0657709 0.5
248 1 0.46378 0.172299 0.5
219 1 0.460328 0.232651 0.5
347 1 0.405179 0.246999 0.5
17 1 0.424535 0.197361 0.5
247 1 0.42705 0.145237 0.5
43 1 0.378708 0.149874 0.5
254 1 0.379611 0.203305 0.5
165 1 0.3815 0.343326 0.5
300 1 0.487975 0.276924 0.5
15 1 0.433537 0.335589 0.5
380 1 0.44221 0.282831 0.5
157 1 0.477952 0.327067 0.5
257 1 0.380706 0.288551 0.5
20 1 0.397465 0.432772 0.5
53 1 0.432511 0.477383 0.5
198 1 0.384734 0.487037 0.5
367 1 0.452778 0.436644 0.5
149 1 0.435338 0.385812 0.5
120 1 0.493799 0.474528 0.5
352 1 0.481667 0.375471 0.5
143 1 0.487904 0.591872 0.5
202 1 0.442325 0.564695 0.5
90 1 0.48281 0.547153 0.5
62 1 0.3864 0.587875 0.5
148 1 0.438357 0.611618 0.5
366 1 0.421384 0.52349 0.5
288 1 0.375008 0.531008 0.5
172 1 0.437969 0.674842 0.5
132 1 0.446633 0.728808 0.5
190 1 0.485054 0.700455 0.5
218 1 0.39297 0.692805 0.5
130 1 0.404796 0.640619 0.5
118 1 0.480048 0.650916 0.5
314 1 0.487217 0.747974 0.5
83 1 0.40154 0.741912 0.5
142 1 0.446803 0.832918 0.5
104 1 0.401495 0.786765 0.5
385 1 0.495579 0.796431 0.5
306 1 0.450006 0.77624 0.5
71 1 0.388555 0.831302 0.5
63 1 0.416405 0.873783 0.5
221 1 0.466562 0.990846 0.5
331 1 0.415746 0.97689 0.5
253 1 0.376838 0.946727 0.5
29 1 0.479592 0.923207 0.5
305 1 0.418406 0.924973 0.5
44 1 0.463454 0.879287 0.5
249 1 0.612482 0.0640011 0.5
303 1 0.528069 0.0428113 0.5
379 1 0.5485 0.105007 0.5
87 1 0.58319 0.0213963 0.5
381 1 0.605788 0.111203 0.5
140 1 0.506888 0.083255 0.5
110 1 0.51052 0.00188609 0.5
37 1 0.605652 0.162674 0.5
147 1 0.509109 0.138085 0.5
196 1 0.561775 0.148603 0.5
350 1 0.562851 0.19639 0.5
382 1 0.513198 0.197712 0.5
209 1 0.524688 0.241372 0.5
25 1 0.609869 0.213312 0.5
340 1 0.57784 0.248808 0.5
262 1 0.62305 0.262064 0.5
70 1 0.521245 0.343189 0.5
212 1 0.545774 0.301873 0.5
24 1 0.579366 0.366681 0.5
125 1 0.591896 0.294259 0.5
174 1 0.614683 0.335242 0.5
52 1 0.555663 0.428685 0.5
23 1 0.546921 0.473478 0.5
393 1 0.597941 0.410256 0.5
111 1 0.53892 0.387908 0.5
30 1 0.598433 0.464094 0.5
2 1 0.509588 0.423733 0.5
259 1 0.577219 0.596034 0.5
161 1 0.521016 0.512579 0.5
167 1 0.57498 0.509005 0.5
266 1 0.532454 0.568335 0.5
65 1 0.605789 0.545716 0.5
332 1 0.524536 0.62175 0.5
293 1 0.622863 0.588163 0.5
80 1 0.569285 0.688409 0.5
86 1 0.582977 0.640691 0.5
263 1 0.525398 0.674197 0.5
95 1 0.530824 0.7332 0.5
45 1 0.614121 0.691548 0.5
357 1 0.590526 0.742558 0.5
272 1 0.587899 0.794811 0.5
7 1 0.510366 0.855913 0.5
364 1 0.554589 0.827852 0.5
207 1 0.543512 0.776005 0.5
375 1 0.611546 0.83788 0.5
211 1 0.551898 0.977881 0.5
278 1 0.569198 0.882381 0.5
145 1 0.51614 0.9511 0.5
50 1 0.558893 0.92947 0.5
41 1 0.522546 0.900573 0.5
13 1 0.611086 0.950588 0.5
297 1 0.62527 0.894943 0.5
60 1 0.65863 0.0772165 0.5
223 1 0.701822 0.0157582 0.5
299 1 0.657568 0.0306644 0.5
4 1 0.708946 0.0607537 0.5
194 1 0.73944 0.0982514 0.5
234 1 0.69035 0.118425 0.5
19 1 0.695248 0.168423 0.5
333 1 0.646503 0.183338 0.5
260 1 0.705058 0.217842 0.5
313 1 0.73474 0.142219 0.5
307 1 0.646953 0.131596 0.5
112 1 0.658389 0.232641 0.5
320 1 0.747062 0.190792 0.5
310 1 0.65678 0.315974 0.5
370 1 0.692172 0.277405 0.5
230 1 0.73211 0.301493 0.5
378 1 0.703799 0.339326 0.5
308 1 0.737705 0.248581 0.5
85 1 0.691513 0.420964 0.5
183 1 0.749444 0.430694 0.5
141 1 0.675375 0.472407 0.5
11 1 0.725639 0.387121 0.5
390 1 0.640464 0.427871 0.5
117 1 0.724379 0.473691 0.5
89 1 0.642296 0.378543 0.5
155 1 0.70912 0.573205 0.5
59 1 0.656167 0.562159 0.5
137 1 0.686379 0.519632 0.5
279 1 0.665363 0.608826 0.5
67 1 0.63623 0.509322 0.5
265 1 0.740463 0.664003 0.5
144 1 0.627849 0.636774 0.5
206 1 0.712024 0.624537 0.5
346 1 0.680072 0.666918 0.5
97 1 0.659546 0.712364 0.5
152 1 0.711045 0.705529 0.5
187 1 0.731153 0.744824 0.5
225 1 0.633182 0.760586 0.5
256 1 0.690089 0.769643 0.5
204 1 0.70519 0.816796 0.5
28 1 0.652783 0.812615 0.5
330 1 0.720075 0.876774 0.5
108 1 0.720483 0.923591 0.5
131 1 0.686825 0.969649 0.5
135 1 0.661714 0.930766 0.5
105 1 0.743596 0.967321 0.5
47 1 0.634935 0.989062 0.5
96 1 0.673551 0.882534 0.5
92 1 0.787205 0.0894218 0.5
36 1 0.811376 0.042169 0.5
312 1 0.834898 0.0868796 0.5
186 1 0.855208 0.0284893 0.5
233 1 0.756203 0.0344315 0.5
54 1 0.846095 0.179845 0.5
1 1 0.792202 0.135447 0.5
133 1 0.842047 0.1347 0.5
184 1 0.79045 0.181275 0.5
316 1 0.782706 0.227231 0.5
72 1 0.809707 0.347533 0.5
101 1 0.781898 0.295235 0.5
55 1 0.815729 0.261088 0.5
14 1 0.854877 0.288576 0.5
337 1 0.762432 0.342872 0.5
106 1 0.838647 0.46425 0.5
343 1 0.767448 0.491453 0.5
49 1 0.79095 0.450939 0.5
354 1 0.824167 0.419276 0.5
362 1 0.78125 0.396233 0.5
34 1 0.846134 0.377033 0.5
351 1 0.791576 0.532879 0.5
374 1 0.757052 0.566577 0.5
290 1 0.829117 0.56886 0.5
156 1 0.861202 0.610854 0.5
298 1 0.84653 0.524546 0.5
397 1 0.809797 0.615905 0.5
139 1 0.842322 0.658826 0.5
200 1 0.756332 0.708419 0.5
10 1 0.817684 0.721481 0.5
179 1 0.861282 0.746273 0.5
353 1 0.798446 0.6747 0.5
159 1 0.872003 0.702365 0.5
372 1 0.767681 0.627737 0.5
238 1 0.842409 0.795913 0.5
392 1 0.799444 0.797615 0.5
75 1 0.757763 0.84422 0.5
261 1 0.777679 0.75646 0.5
3 1 0.825382 0.835911 0.5
267 1 0.871665 0.832346 0.5
301 1 0.751874 0.797128 0.5
376 1 0.790119 0.949528 0.5
345 1 0.811514 0.882287 0.5
336 1 0.762821 0.896547 0.5
285 1 0.833412 0.932642 0.5
150 1 0.8333 0.983961 0.5
348 1 0.862755 0.884832 0.5
358 1 0.783589 0.996065 0.5
294 1 0.901431 0.0414078 0.5
277 1 0.881616 0.0849945 0.5
48 1 0.986001 0.0738905 0.5
208 1 0.949283 0.0434794 0.5
57 1 0.930077 0.0877595 0.5
5 1 0.931331 -0.000380915 0.5
189 1 0.922202 0.227701 0.5
66 1 0.914433 0.181624 0.5
339 1 0.963603 0.193074 0.5
236 1 0.8936 0.137664 0.5
399 1 0.940202 0.130592 0.5
371 1 0.96566 0.24843 0.5
210 1 0.878837 0.21571 0.5
242 1 0.987153 0.126594 0.5
185 1 0.99448 0.285309 0.5
51 1 0.892092 0.34178 0.5
271 1 0.894172 0.268363 0.5
197 1 0.963703 0.347177 0.5
175 1 0.940963 0.291459 0.5
77 1 0.934193 0.384426 0.5
146 1 0.981786 0.431753 0.5
42 1 0.92954 0.474594 0.5
309 1 0.929243 0.430375 0.5
318 1 0.888872 0.391297 0.5
292 1 0.991109 0.388308 0.5
169 1 0.974229 0.494593 0.5
129 1 0.880921 0.435805 0.5
158 1 0.931346 0.541234 0.5
32 1 0.960496 0.589106 0.5
46 1 0.912674 0.599299 0.5
162 1 0.986861 0.552724 0.5
9 1 0.890028 0.505169 0.5
58 1 0.878361 0.561932 0.5
280 1 0.891565 0.647953 0.5
394 1 0.982603 0.633974 0.5
160 1 0.949535 0.721161 0.5
33 1 0.922892 0.685905 0.5
178 1 0.984114 0.682245 0.5
270 1 0.909262 0.742905 0.5
355 1 0.938348 0.642133 0.5
73 1 0.899138 0.786485 0.5
323 1 0.966421 0.847234 0.5
269 1 0.989431 0.801593 0.5
68 1 0.927811 0.821127 0.5
88 1 0.948392 0.78146 0.5
365 1 0.913981 0.863768 0.5
237 1 0.878067 0.936482 0.5
164 1 0.972723 0.937551 0.5
229 1 0.913351 0.908244 0.5
163 1 0.925627 0.954372 0.5
94 1 0.883054 0.993228 0.5
93 1 0.980033 0.98802 0.5
