ITEM: TIMESTEP
100000
ITEM: NUMBER OF ATOMS
2048
ITEM: BOX BOUNDS pp pp pp
0.0000000000000000e+00 1.1093780389610155e+01
0.0000000000000000e+00 1.1093780389610155e+01
0.0000000000000000e+00 1.1093780389610155e+01
ITEM: ATOMS id type xs ys zs
4 1 0.000431143 0.0598012 0.0563294
2 1 0.0601356 0.058542 0.0040816
11 1 0.0597159 0.123481 0.0604338
15 1 0.18366 0.124507 0.0595962
521 1 0.244947 0.124858 0.00121306
9 1 0.000279137 0.125717 0.000500161
16 1 0.121627 0.183902 0.0581637
524 1 0.249661 0.186749 0.0565099
12 1 0.000950073 0.188917 0.0592095
131 1 0.0596517 0.249497 0.0602431
135 1 0.186043 0.244436 0.0610445
641 1 0.249514 0.246727 0.00378095
18 1 0.0602375 0.0606941 0.123596
8 1 0.122581 0.0615873 0.0645427
7 1 0.189137 0.00702884 0.0626061
29 1 0.12155 0.124837 0.124942
30 1 0.188894 0.182289 0.123164
26 1 0.0567382 0.187782 0.12246
149 1 0.123727 0.247589 0.122548
657 1 0.245258 0.249905 0.120964
21 1 0.128607 0.0033568 0.126402
532 1 0.246638 0.0589581 0.187131
22 1 0.189445 0.0638332 0.125269
147 1 0.0641321 0.246061 0.187112
151 1 0.186612 0.244779 0.186139
19 1 0.0609166 0.00407475 0.18902
34 1 0.061065 0.0617734 0.249169
23 1 0.187361 0.000810668 0.188697
24 1 0.125822 0.0624047 0.190027
27 1 0.0609361 0.122316 0.187602
32 1 0.123446 0.185219 0.192966
31 1 0.189244 0.125869 0.189477
161 1 0.00133273 0.249577 0.248929
673 1 0.246759 0.247217 0.249556
36 1 0.000937185 0.0608724 0.3122
37 1 0.127074 0.00242065 0.253795
38 1 0.19096 0.0619858 0.254692
42 1 0.0580945 0.185421 0.252338
45 1 0.118424 0.126397 0.250865
46 1 0.189898 0.184311 0.252411
163 1 0.0606391 0.249996 0.310269
48 1 0.119913 0.188629 0.31159
39 1 0.191438 0.00292538 0.314049
43 1 0.0584184 0.123329 0.313424
50 1 0.05926 0.065458 0.374319
40 1 0.122392 0.0628032 0.314124
47 1 0.185021 0.124535 0.317733
548 1 0.249519 0.0677315 0.314652
61 1 0.121589 0.127226 0.374658
556 1 0.249756 0.186536 0.31751
58 1 0.0595124 0.190212 0.374117
62 1 0.183302 0.193301 0.374043
51 1 0.0627367 0.00305869 0.435686
53 1 0.123322 0.00300217 0.375827
54 1 0.187965 0.0614476 0.376059
59 1 0.0628578 0.124361 0.437105
63 1 0.183276 0.12664 0.433516
569 1 0.249712 0.128374 0.378547
572 1 0.248175 0.189168 0.435127
52 1 0.00113567 0.0611519 0.43805
56 1 0.127887 0.0623546 0.440184
69 1 0.129813 0.00172086 0.499991
70 1 0.191812 0.0588698 0.49749
73 1 0.00207188 0.12439 0.497044
66 1 0.0634599 0.0637215 0.498013
77 1 0.126528 0.128167 0.497797
179 1 0.0619687 0.248124 0.440936
64 1 0.122421 0.190499 0.438232
78 1 0.18757 0.189562 0.49829
67 1 0.0654082 0.00114024 0.562193
68 1 0.000188231 0.0676297 0.557932
72 1 0.124665 0.0652488 0.557062
79 1 0.189622 0.125777 0.560571
74 1 0.0611155 0.189253 0.506091
593 1 0.249771 0.00273332 0.623242
86 1 0.188718 0.0616705 0.622322
89 1 0.00168805 0.123177 0.622424
93 1 0.127894 0.122504 0.624432
75 1 0.0645624 0.128588 0.564721
80 1 0.126209 0.184877 0.563911
94 1 0.189218 0.187292 0.62268
195 1 0.0666673 0.248915 0.566171
199 1 0.189766 0.248689 0.563347
83 1 0.0645638 0.00523258 0.684047
82 1 0.066064 0.0624318 0.625308
88 1 0.128436 0.0612254 0.685862
596 1 0.24939 0.0623384 0.686655
84 1 0.00429002 0.0643836 0.686279
95 1 0.191289 0.124503 0.681001
90 1 0.0638174 0.187203 0.628702
96 1 0.130543 0.188118 0.681766
617 1 0.248297 0.124903 0.746836
102 1 0.188643 0.0635201 0.747476
105 1 0.00227231 0.128574 0.746451
91 1 0.0659185 0.125687 0.690199
109 1 0.127578 0.126716 0.747333
604 1 0.248397 0.186524 0.687839
106 1 0.0614905 0.188011 0.745796
229 1 0.127156 0.248692 0.748039
100 1 0.00431436 0.060856 0.811641
98 1 0.0644991 0.0620564 0.751389
107 1 0.0603325 0.124979 0.810093
104 1 0.124355 0.0628542 0.812094
111 1 0.186694 0.125039 0.812493
108 1 0.000223463 0.189125 0.807614
112 1 0.12138 0.189601 0.810514
110 1 0.185485 0.188959 0.753761
231 1 0.191514 0.249024 0.812146
103 1 0.184713 0.00123308 0.816001
118 1 0.184661 0.0600878 0.874345
121 1 0.000206102 0.121111 0.87289
122 1 0.0596818 0.187706 0.874454
126 1 0.186025 0.187914 0.870214
245 1 0.125486 0.246401 0.874392
753 1 0.249611 0.245983 0.872137
114 1 0.0597389 0.0602624 0.876485
117 1 0.123465 0.00128011 0.876052
123 1 0.0620563 0.123988 0.934516
125 1 0.126588 0.123931 0.877162
628 1 0.246624 0.0632804 0.934245
127 1 0.188022 0.125918 0.933104
128 1 0.123144 0.190845 0.936526
636 1 0.249951 0.188311 0.935263
116 1 0.00110837 0.0616182 0.940456
115 1 0.0630726 0.000707971 0.938412
120 1 0.121152 0.0595111 0.941853
6 1 0.186846 0.0633335 0.998027
10 1 0.0595739 0.18644 0.998553
13 1 0.122898 0.125227 0.994958
14 1 0.186218 0.185195 0.998539
133 1 0.120351 0.247666 0.999439
247 1 0.188522 0.248707 0.939088
136 1 0.12555 0.308848 0.0564574
139 1 0.0609198 0.373699 0.0610929
141 1 0.122217 0.373764 0.00130668
143 1 0.185648 0.375444 0.0586425
144 1 0.119255 0.440493 0.0603731
652 1 0.248191 0.439966 0.0572717
146 1 0.0632185 0.311152 0.120886
150 1 0.185129 0.309514 0.122882
665 1 0.248236 0.37318 0.120721
153 1 0.0016349 0.381454 0.120626
154 1 0.0626773 0.436419 0.12242
157 1 0.120838 0.37821 0.122104
158 1 0.1885 0.437941 0.122543
152 1 0.124808 0.312081 0.187493
660 1 0.244014 0.308334 0.183699
148 1 0.00324255 0.317399 0.184777
155 1 0.0658624 0.377521 0.186421
159 1 0.187409 0.377057 0.181402
160 1 0.126842 0.440525 0.181204
668 1 0.248776 0.438805 0.185637
165 1 0.121654 0.252485 0.247439
166 1 0.18966 0.312102 0.247687
169 1 0.00216376 0.374176 0.248365
162 1 0.0642107 0.313628 0.247742
170 1 0.0662291 0.434989 0.249518
156 1 0.000688464 0.438087 0.187784
174 1 0.188075 0.441044 0.243989
168 1 0.124847 0.31138 0.30978
167 1 0.186864 0.25413 0.312177
164 1 0.0021829 0.31318 0.311839
171 1 0.0685249 0.374213 0.310266
173 1 0.128337 0.374199 0.250148
172 1 0.00415514 0.434868 0.308629
175 1 0.190106 0.376906 0.312335
291 1 0.0646152 0.49983 0.312002
176 1 0.12939 0.437992 0.310963
295 1 0.191189 0.498266 0.31013
178 1 0.0582039 0.310746 0.373342
181 1 0.120255 0.253326 0.372984
689 1 0.249294 0.250663 0.373819
182 1 0.181904 0.313154 0.37478
185 1 0.00167448 0.375459 0.374948
180 1 0.00106071 0.30962 0.437175
184 1 0.119516 0.308659 0.435216
189 1 0.124151 0.374952 0.376217
191 1 0.187738 0.374167 0.436379
187 1 0.0619335 0.377747 0.436912
186 1 0.0616799 0.436001 0.375563
190 1 0.190206 0.432828 0.37756
309 1 0.127903 0.495277 0.378514
183 1 0.189326 0.251145 0.441164
692 1 0.247913 0.30903 0.438439
201 1 0.000877921 0.370352 0.497645
206 1 0.192468 0.434766 0.498378
307 1 0.0607779 0.496873 0.441808
321 1 0.00130745 0.497483 0.497618
192 1 0.126237 0.438088 0.440144
196 1 0.00320568 0.309653 0.560617
194 1 0.0631193 0.311489 0.500524
197 1 0.128285 0.251066 0.502511
198 1 0.190025 0.312459 0.504042
203 1 0.0631233 0.373567 0.559888
202 1 0.0623434 0.437322 0.501361
208 1 0.12706 0.436863 0.55926
205 1 0.12923 0.375482 0.501295
209 1 0.000600812 0.252152 0.622691
213 1 0.127723 0.253652 0.624774
200 1 0.127567 0.313805 0.563874
207 1 0.193299 0.374482 0.563524
204 1 0.0029235 0.436534 0.564147
222 1 0.18324 0.435837 0.621683
212 1 0.00204905 0.311979 0.685559
215 1 0.191279 0.251613 0.687157
210 1 0.0667271 0.312983 0.62536
221 1 0.12675 0.370588 0.626947
214 1 0.192425 0.313443 0.626917
218 1 0.0671628 0.433211 0.626049
337 1 0.0060399 0.495339 0.625558
341 1 0.124325 0.49676 0.627233
343 1 0.189851 0.499298 0.682207
211 1 0.0674704 0.251205 0.687568
233 1 1.96484e-05 0.371561 0.748405
219 1 0.0645764 0.374646 0.689081
223 1 0.186765 0.374598 0.693004
216 1 0.125531 0.315637 0.689229
230 1 0.185923 0.313877 0.749976
220 1 0.00514037 0.436056 0.690723
224 1 0.124285 0.437849 0.691987
228 1 0.000700616 0.308967 0.805242
227 1 0.0592353 0.250635 0.807934
237 1 0.124828 0.37308 0.753115
226 1 0.0668207 0.31284 0.750211
745 1 0.24866 0.374787 0.75236
235 1 0.0578804 0.375018 0.81192
234 1 0.0621252 0.436051 0.752198
239 1 0.188721 0.378095 0.81039
353 1 0.000363195 0.498592 0.751087
240 1 0.126598 0.441743 0.810755
238 1 0.187982 0.439821 0.750685
232 1 0.128334 0.310113 0.814138
242 1 0.0634021 0.313067 0.874304
250 1 0.0605986 0.43418 0.873838
253 1 0.124193 0.377316 0.871238
355 1 0.0578521 0.497245 0.81594
254 1 0.187056 0.438957 0.871874
243 1 0.06159 0.252992 0.934562
248 1 0.128432 0.308171 0.935763
246 1 0.19069 0.312112 0.875661
756 1 0.247853 0.311571 0.936207
252 1 0.000562701 0.432522 0.936931
761 1 0.249704 0.38029 0.877564
256 1 0.124049 0.439202 0.935393
371 1 0.0636002 0.493544 0.93466
130 1 0.0586598 0.311902 0.999997
134 1 0.186565 0.310349 0.999426
251 1 0.0660883 0.373717 0.939417
255 1 0.18962 0.373835 0.940654
138 1 0.0607485 0.437246 0.995899
142 1 0.17974 0.436856 0.999211
261 1 0.121403 0.498571 0.997515
764 1 0.24532 0.441911 0.939651
263 1 0.183638 0.504514 0.0604537
772 1 0.245966 0.562112 0.0617713
269 1 0.124856 0.624477 0.00152153
258 1 0.0663269 0.56599 0.00287227
264 1 0.126685 0.562882 0.0621741
271 1 0.187658 0.624723 0.0624575
267 1 0.0602632 0.629984 0.0603991
270 1 0.187758 0.686606 0.00183736
266 1 0.0619634 0.693215 0.0050986
259 1 0.0630628 0.503089 0.064975
277 1 0.124561 0.500254 0.119964
274 1 0.0626026 0.566478 0.124511
278 1 0.187213 0.562853 0.124248
286 1 0.187622 0.683775 0.124733
780 1 0.24937 0.686835 0.0662419
282 1 0.0629996 0.691476 0.122902
272 1 0.12774 0.68845 0.0638159
391 1 0.186166 0.749428 0.0695004
275 1 0.0615267 0.503012 0.185409
273 1 6.2852e-05 0.500259 0.125991
279 1 0.188102 0.504356 0.183353
281 1 0.00248192 0.624794 0.130036
280 1 0.121918 0.565301 0.184925
287 1 0.187022 0.622503 0.18437
285 1 0.121878 0.627848 0.127714
405 1 0.123985 0.749231 0.129586
407 1 0.18677 0.749341 0.187095
290 1 0.0632723 0.562573 0.249695
809 1 0.248634 0.623708 0.247927
283 1 0.0637275 0.628652 0.19233
288 1 0.128021 0.685895 0.192085
403 1 0.0621757 0.749528 0.188533
284 1 0.00177147 0.688645 0.187693
417 1 0.0015602 0.748528 0.249393
293 1 0.124095 0.503143 0.250165
301 1 0.128241 0.623242 0.256223
294 1 0.189757 0.563154 0.250764
298 1 0.063395 0.690972 0.255474
302 1 0.188771 0.687601 0.250078
296 1 0.12588 0.559113 0.318781
310 1 0.187601 0.560162 0.374641
299 1 0.0604359 0.62105 0.314444
317 1 0.122996 0.621676 0.37458
303 1 0.187707 0.619328 0.317702
300 1 0.0015217 0.685669 0.31523
304 1 0.129638 0.685583 0.317163
812 1 0.247135 0.682654 0.315093
433 1 0.00520674 0.749121 0.374846
419 1 0.0636934 0.749239 0.317065
423 1 0.188288 0.748502 0.317432
306 1 0.0592839 0.556165 0.376231
313 1 0.000723051 0.623388 0.378543
319 1 0.187773 0.624417 0.436586
314 1 0.0661978 0.683547 0.378548
318 1 0.186055 0.681973 0.376641
437 1 0.129234 0.749648 0.378825
945 1 0.248612 0.747554 0.378393
312 1 0.125312 0.560324 0.439448
325 1 0.125763 0.500019 0.498276
311 1 0.194141 0.50198 0.438826
315 1 0.0659618 0.621395 0.438633
333 1 0.128228 0.62366 0.498633
316 1 7.13217e-05 0.68564 0.440528
330 1 0.0593603 0.684302 0.499767
320 1 0.125953 0.686288 0.438931
435 1 0.0639279 0.749081 0.438783
453 1 0.125439 0.746183 0.49826
439 1 0.189892 0.748074 0.439662
322 1 0.0633392 0.560119 0.501448
331 1 0.0644453 0.62305 0.558665
326 1 0.190137 0.565307 0.500903
335 1 0.184221 0.628659 0.561546
334 1 0.18827 0.689654 0.502207
324 1 0.000711438 0.56101 0.567792
323 1 0.0635102 0.500888 0.56429
327 1 0.189326 0.501711 0.56551
328 1 0.129175 0.564906 0.565139
349 1 0.122204 0.62543 0.621279
336 1 0.12417 0.686679 0.565039
451 1 0.0599886 0.748302 0.566879
469 1 0.122239 0.748682 0.624565
844 1 0.248767 0.689949 0.56447
340 1 0.0012861 0.561281 0.684653
338 1 0.0647688 0.559266 0.627893
344 1 0.128149 0.56245 0.685605
342 1 0.189917 0.561839 0.626437
345 1 0.00226079 0.623044 0.625148
346 1 0.0608161 0.684089 0.625651
348 1 0.00308455 0.685769 0.685625
351 1 0.187473 0.629826 0.683738
857 1 0.248348 0.625362 0.625337
860 1 0.248736 0.686956 0.686472
350 1 0.186157 0.690831 0.627667
339 1 0.0622384 0.501537 0.688174
357 1 0.129758 0.501831 0.748102
347 1 0.0626491 0.624388 0.690611
352 1 0.121406 0.687443 0.688577
362 1 0.0607183 0.688392 0.749495
356 1 0.000296787 0.56017 0.811995
354 1 0.0608733 0.560596 0.75299
358 1 0.18461 0.56799 0.752532
361 1 0.00365103 0.625487 0.75641
365 1 0.121859 0.625912 0.751553
367 1 0.18541 0.628561 0.81042
366 1 0.184711 0.686243 0.751139
873 1 0.249787 0.627318 0.75109
364 1 0.00121545 0.689647 0.811753
993 1 0.24675 0.749138 0.75296
370 1 0.0583956 0.561806 0.873897
373 1 0.125275 0.500262 0.871616
359 1 0.191247 0.50289 0.813195
360 1 0.122858 0.563361 0.813122
374 1 0.189715 0.566647 0.871602
363 1 0.0617642 0.634602 0.814856
368 1 0.122773 0.691456 0.815876
876 1 0.247103 0.688563 0.817905
372 1 0.000112358 0.560378 0.933727
375 1 0.182733 0.505171 0.93349
881 1 0.248637 0.501243 0.87743
889 1 0.249939 0.623649 0.876234
379 1 0.0615226 0.625489 0.933746
381 1 0.126836 0.627966 0.879434
892 1 0.24956 0.686363 0.936286
497 1 0.000281362 0.748288 0.87621
378 1 0.0646442 0.691882 0.881853
382 1 0.186725 0.688354 0.875464
257 1 0.00114451 0.501919 0.997691
376 1 0.120633 0.562306 0.937713
262 1 0.181937 0.561698 0.999732
769 1 0.244615 0.502212 0.998283
383 1 0.186042 0.619882 0.943713
380 1 0.000537622 0.687586 0.937776
384 1 0.125055 0.687636 0.9408
389 1 0.128123 0.75158 0.00403126
386 1 0.0680075 0.812688 0.000997278
390 1 0.190473 0.815012 0.00097086
397 1 0.122622 0.877715 0.0048371
908 1 0.243908 0.935064 0.0607349
394 1 0.0634378 0.940393 0.000429912
5 1 0.126447 0.999642 0.00270634
513 1 0.249457 0.99943 0.000951698
387 1 0.0645603 0.755378 0.0636171
392 1 0.129225 0.810613 0.0670595
395 1 0.0607627 0.874646 0.0648839
388 1 0.002074 0.81558 0.0648569
399 1 0.187691 0.873316 0.0650047
900 1 0.248076 0.814466 0.0628777
400 1 0.123568 0.938825 0.068785
3 1 0.0634428 0.997903 0.0667918
402 1 0.0612002 0.815435 0.126356
406 1 0.187645 0.81293 0.127869
413 1 0.119731 0.879097 0.129478
415 1 0.18548 0.876658 0.187401
410 1 0.0595958 0.938945 0.129259
414 1 0.186455 0.939088 0.125803
404 1 0.00143198 0.810752 0.189679
408 1 0.124452 0.815675 0.188377
422 1 0.18722 0.812851 0.247654
411 1 0.0575828 0.877119 0.192046
429 1 0.125705 0.878275 0.247825
416 1 0.12365 0.943332 0.191741
430 1 0.187956 0.939615 0.248218
924 1 0.247669 0.939341 0.189068
420 1 0.00226265 0.810447 0.311045
418 1 0.0637858 0.809319 0.252283
421 1 0.127503 0.751904 0.253588
427 1 0.0644819 0.873466 0.312343
932 1 0.249214 0.812746 0.308867
431 1 0.186754 0.876864 0.307902
426 1 0.0621512 0.940228 0.255304
33 1 0.00200597 0.99848 0.254128
432 1 0.125262 0.938518 0.309638
424 1 0.125087 0.812237 0.314778
438 1 0.191978 0.812051 0.372687
446 1 0.185969 0.936469 0.373962
445 1 0.127409 0.876802 0.374102
953 1 0.243546 0.877072 0.374208
35 1 0.0623575 0.999533 0.315811
436 1 0.000359342 0.811191 0.43534
434 1 0.0620027 0.816437 0.375416
443 1 0.0616511 0.869896 0.437427
956 1 0.249646 0.93654 0.434181
442 1 0.062514 0.937775 0.37561
55 1 0.191436 0.997867 0.436133
450 1 0.0616468 0.809779 0.499292
457 1 0.00216241 0.873715 0.499175
440 1 0.123749 0.814098 0.439074
447 1 0.184061 0.874347 0.44039
948 1 0.248237 0.814671 0.440505
444 1 0.00397105 0.935495 0.437852
448 1 0.12586 0.9393 0.43955
452 1 0.00035329 0.808666 0.561427
454 1 0.183722 0.811579 0.500443
961 1 0.249637 0.750368 0.501754
461 1 0.122765 0.870965 0.501653
969 1 0.244522 0.870244 0.505211
458 1 0.0608073 0.936337 0.501714
464 1 0.128206 0.937293 0.557495
462 1 0.192846 0.937218 0.501672
65 1 0.00147018 0.999251 0.502576
71 1 0.190396 0.999415 0.558066
456 1 0.122548 0.811793 0.563011
455 1 0.181564 0.752201 0.56416
459 1 0.057488 0.874417 0.564952
463 1 0.18399 0.87294 0.56362
470 1 0.183432 0.816223 0.623811
964 1 0.24493 0.813393 0.56605
81 1 0.00463705 0.999503 0.624963
474 1 0.0649152 0.938297 0.624081
85 1 0.128901 0.997672 0.620207
465 1 0.00208783 0.75109 0.628591
467 1 0.0605811 0.750843 0.687173
977 1 0.245163 0.751675 0.625461
466 1 0.0619797 0.813544 0.626939
980 1 0.248588 0.812724 0.687051
477 1 0.127961 0.879462 0.625289
478 1 0.188817 0.936835 0.625418
479 1 0.187798 0.87753 0.686988
481 1 0.00123719 0.750358 0.743633
472 1 0.123522 0.81062 0.692032
471 1 0.186058 0.75185 0.691793
475 1 0.0628108 0.869028 0.690921
476 1 0.00118591 0.934073 0.68998
480 1 0.120298 0.931839 0.68909
490 1 0.0625231 0.93603 0.748858
494 1 0.18927 0.93519 0.749724
97 1 0.00333773 0.999593 0.747482
101 1 0.12699 0.999237 0.745058
87 1 0.190353 0.997733 0.687883
485 1 0.126635 0.750643 0.750135
486 1 0.189122 0.812209 0.751025
482 1 0.0615757 0.812778 0.757318
493 1 0.122442 0.873713 0.754461
492 1 0.00213715 0.941777 0.81218
496 1 0.128171 0.939835 0.81167
483 1 0.060293 0.750366 0.815497
488 1 0.122753 0.809402 0.813315
487 1 0.186981 0.751058 0.816014
996 1 0.249431 0.810088 0.814042
484 1 0.00174825 0.815485 0.818375
509 1 0.122047 0.873932 0.874599
495 1 0.190108 0.873491 0.814521
491 1 0.0601761 0.882713 0.818937
505 1 6.36258e-05 0.877011 0.875
99 1 0.0642745 0.996155 0.815556
510 1 0.187033 0.939077 0.873476
501 1 0.128027 0.751397 0.881852
498 1 0.0608488 0.812507 0.877965
502 1 0.185839 0.816142 0.875382
512 1 0.127564 0.937315 0.935907
511 1 0.18878 0.877957 0.937081
1017 1 0.248497 0.876645 0.875581
506 1 0.0623323 0.942994 0.876304
119 1 0.187297 0.998413 0.937072
499 1 0.0602581 0.750966 0.943933
503 1 0.189263 0.751027 0.942253
1012 1 0.247019 0.811452 0.939741
500 1 0.00230653 0.813571 0.942573
507 1 0.0617896 0.874012 0.941961
504 1 0.128379 0.815468 0.93967
398 1 0.185259 0.937326 0.999675
514 1 0.311775 0.0611956 0.0036856
525 1 0.37853 0.124318 0.00250774
1028 1 0.497291 0.064579 0.0613284
518 1 0.438856 0.0627416 0.00136246
523 1 0.312381 0.129847 0.0619893
527 1 0.437716 0.126792 0.0613616
520 1 0.374805 0.0619466 0.0640446
533 1 0.373472 0.000327839 0.124567
530 1 0.313727 0.0622736 0.121811
519 1 0.435107 0.00150201 0.0647034
534 1 0.438432 0.0620666 0.123138
1041 1 0.497887 0.000242593 0.124271
516 1 0.250405 0.0653006 0.0646456
537 1 0.25099 0.125997 0.123364
541 1 0.375852 0.128819 0.123071
538 1 0.309674 0.189953 0.123462
528 1 0.37396 0.187708 0.063119
542 1 0.438705 0.189708 0.123844
531 1 0.313413 0.000501855 0.187065
536 1 0.374949 0.0622818 0.181198
535 1 0.439176 0.00112542 0.186646
1044 1 0.499697 0.0617477 0.182791
539 1 0.311865 0.124604 0.181578
543 1 0.44025 0.127351 0.183335
540 1 0.252635 0.187726 0.185396
661 1 0.373688 0.248079 0.125603
545 1 0.251345 0.00163543 0.249146
549 1 0.378599 0.00141659 0.245531
550 1 0.436674 0.0620714 0.242425
553 1 0.251836 0.12359 0.248081
546 1 0.314179 0.0644176 0.247574
544 1 0.368088 0.185807 0.187835
557 1 0.378627 0.127139 0.24676
1065 1 0.498152 0.129614 0.247827
554 1 0.31186 0.191201 0.2498
663 1 0.43677 0.246208 0.188253
547 1 0.312965 0.00778107 0.312028
551 1 0.438447 0.00418236 0.307872
552 1 0.376789 0.0637775 0.305703
559 1 0.439394 0.122811 0.310481
1060 1 0.49868 0.0654953 0.308684
555 1 0.315364 0.12683 0.310412
558 1 0.437258 0.192833 0.252927
1073 1 0.49709 0.00152058 0.374152
562 1 0.314179 0.0659705 0.370752
566 1 0.43479 0.0640265 0.371591
573 1 0.373049 0.128898 0.37109
560 1 0.374414 0.192501 0.313466
574 1 0.439906 0.190185 0.374097
563 1 0.315588 0.000842563 0.435244
567 1 0.437674 0.000666179 0.433264
564 1 0.253221 0.0645107 0.436314
568 1 0.373802 0.0636179 0.435462
571 1 0.314334 0.123933 0.436995
575 1 0.438196 0.126222 0.431991
570 1 0.317019 0.188487 0.375046
585 1 0.252988 0.124653 0.499283
578 1 0.313778 0.0641971 0.499206
582 1 0.436975 0.0631842 0.495261
691 1 0.310508 0.248137 0.437774
576 1 0.380894 0.188833 0.439372
695 1 0.438268 0.246725 0.440636
580 1 0.250124 0.0617119 0.559444
581 1 0.37951 0.000880293 0.501033
589 1 0.377146 0.123249 0.501909
588 1 0.251574 0.186704 0.561953
587 1 0.314819 0.127365 0.560409
586 1 0.320132 0.186563 0.501439
590 1 0.441045 0.184518 0.50383
705 1 0.250268 0.247686 0.501794
709 1 0.378196 0.247761 0.504427
583 1 0.439953 0.00149092 0.566458
594 1 0.311038 0.0637019 0.621489
584 1 0.378749 0.0634285 0.56297
591 1 0.440989 0.122835 0.56945
601 1 0.254015 0.12641 0.62337
707 1 0.312044 0.24842 0.562934
592 1 0.377009 0.187807 0.566065
595 1 0.309433 0.00187296 0.686978
600 1 0.376518 0.0619421 0.686416
597 1 0.375859 0.00281474 0.627614
599 1 0.441025 0.000532307 0.687164
605 1 0.373367 0.121925 0.625422
598 1 0.438379 0.0645381 0.628968
608 1 0.372583 0.184834 0.685552
602 1 0.312832 0.193236 0.627874
606 1 0.440034 0.187971 0.628044
1108 1 0.497311 0.0611232 0.691294
603 1 0.312263 0.124786 0.689374
621 1 0.377259 0.123304 0.748657
607 1 0.438264 0.125928 0.689857
737 1 0.252874 0.24957 0.748304
618 1 0.31208 0.188007 0.749691
612 1 0.250856 0.0593274 0.81193
610 1 0.313118 0.05965 0.751344
614 1 0.434761 0.0604991 0.750987
619 1 0.312437 0.12563 0.811631
620 1 0.250991 0.187818 0.810009
622 1 0.435785 0.189152 0.750765
741 1 0.375025 0.249507 0.750578
616 1 0.372747 0.0604661 0.813607
615 1 0.439238 0.0033725 0.812898
630 1 0.43896 0.0598769 0.872016
626 1 0.313286 0.0642411 0.873895
623 1 0.43745 0.124575 0.814009
624 1 0.374556 0.189399 0.812545
627 1 0.314629 0.0016668 0.93345
629 1 0.37399 0.00351705 0.876348
631 1 0.442162 0.00133427 0.936646
633 1 0.250925 0.124407 0.875541
639 1 0.437149 0.120128 0.935187
637 1 0.375104 0.121877 0.878776
634 1 0.315936 0.184305 0.876475
638 1 0.435858 0.187617 0.875035
632 1 0.377737 0.0588483 0.93843
635 1 0.309367 0.124187 0.938791
1033 1 0.49994 0.124585 0.998628
640 1 0.375755 0.18679 0.939134
522 1 0.313689 0.187897 0.996268
645 1 0.379176 0.247615 0.998965
759 1 0.44068 0.249313 0.940275
526 1 0.437506 0.189116 0.999383
642 1 0.313047 0.307631 0.00192276
648 1 0.375753 0.308298 0.0577151
646 1 0.440219 0.313455 0.00225317
651 1 0.311016 0.377434 0.0586657
655 1 0.440718 0.376282 0.0594616
643 1 0.31133 0.2501 0.0630751
644 1 0.250651 0.310878 0.0629376
658 1 0.313442 0.311747 0.12233
662 1 0.434753 0.310165 0.120884
647 1 0.441002 0.252504 0.0630177
669 1 0.37696 0.374449 0.119023
670 1 0.439691 0.435274 0.121676
656 1 0.372315 0.439933 0.064206
789 1 0.373968 0.499359 0.12257
1297 1 0.497892 0.498511 0.122417
659 1 0.307446 0.253974 0.182238
664 1 0.372852 0.310601 0.183436
667 1 0.314208 0.371703 0.186402
671 1 0.437309 0.36871 0.183157
672 1 0.379442 0.436736 0.182543
1180 1 0.496151 0.433646 0.187277
666 1 0.308338 0.439646 0.125882
785 1 0.251925 0.49908 0.125294
787 1 0.316567 0.49824 0.186927
791 1 0.436558 0.499069 0.184155
677 1 0.373755 0.25232 0.245751
674 1 0.312537 0.313577 0.248978
1172 1 0.497831 0.312573 0.188311
681 1 0.252246 0.376949 0.245808
686 1 0.43691 0.434079 0.247589
805 1 0.378429 0.497002 0.248141
1313 1 0.494846 0.497549 0.24971
675 1 0.310536 0.253589 0.311409
676 1 0.251546 0.314223 0.309547
680 1 0.379406 0.313305 0.310814
685 1 0.376954 0.372372 0.250383
1193 1 0.499779 0.373147 0.252171
687 1 0.439584 0.372228 0.31201
678 1 0.441369 0.31387 0.253366
683 1 0.309658 0.375652 0.306041
682 1 0.314526 0.439776 0.252286
807 1 0.435502 0.49848 0.312371
1196 1 0.49542 0.439393 0.309813
690 1 0.316815 0.30995 0.374171
693 1 0.376333 0.251018 0.373708
679 1 0.439685 0.251642 0.313892
694 1 0.441772 0.309834 0.374193
697 1 0.251411 0.370825 0.373785
684 1 0.250935 0.43688 0.313939
698 1 0.31606 0.4355 0.373647
688 1 0.377728 0.434305 0.315583
803 1 0.319648 0.498604 0.313601
699 1 0.312725 0.369331 0.437162
701 1 0.37881 0.370567 0.376264
1209 1 0.498524 0.370093 0.378177
700 1 0.254542 0.436383 0.432142
704 1 0.37949 0.433639 0.435975
819 1 0.313875 0.497421 0.433809
821 1 0.376932 0.4984 0.375391
702 1 0.442976 0.43919 0.378314
706 1 0.315645 0.30761 0.498584
696 1 0.377824 0.310851 0.438645
710 1 0.439166 0.309898 0.499821
713 1 0.252645 0.370636 0.497255
703 1 0.436762 0.37208 0.438735
1225 1 0.499332 0.376166 0.499021
714 1 0.309747 0.439156 0.498842
837 1 0.37608 0.496526 0.495807
718 1 0.438023 0.43834 0.499638
715 1 0.311362 0.373378 0.56064
717 1 0.372805 0.372712 0.501893
719 1 0.438152 0.375482 0.557345
716 1 0.250589 0.437564 0.559286
712 1 0.378744 0.310151 0.565247
711 1 0.441512 0.251777 0.568304
708 1 0.253697 0.314312 0.562961
722 1 0.31463 0.315604 0.623529
733 1 0.380176 0.37195 0.624941
729 1 0.252069 0.378149 0.62342
720 1 0.375246 0.436472 0.562547
734 1 0.437961 0.438041 0.621955
721 1 0.250701 0.250835 0.62506
725 1 0.376297 0.250072 0.629421
727 1 0.439572 0.25161 0.683911
731 1 0.315792 0.374148 0.686749
726 1 0.443252 0.31592 0.628124
730 1 0.311412 0.437842 0.626042
723 1 0.314631 0.256162 0.689672
728 1 0.381797 0.311303 0.689705
742 1 0.440517 0.310794 0.748428
724 1 0.251532 0.316438 0.688861
749 1 0.379561 0.374181 0.749494
732 1 0.252919 0.432944 0.690517
735 1 0.436976 0.379334 0.688736
736 1 0.37436 0.439543 0.692369
739 1 0.311866 0.252338 0.810146
740 1 0.251713 0.31452 0.811009
738 1 0.313969 0.318475 0.750244
744 1 0.376033 0.315986 0.812374
746 1 0.313647 0.435536 0.75322
748 1 0.250014 0.438399 0.811292
867 1 0.315505 0.499879 0.812208
869 1 0.3787 0.498619 0.752592
750 1 0.439724 0.44119 0.751601
757 1 0.374055 0.25024 0.872426
743 1 0.437871 0.253242 0.815897
751 1 0.440394 0.373605 0.814226
747 1 0.3091 0.377765 0.813733
752 1 0.373908 0.434915 0.816906
766 1 0.44096 0.436583 0.874264
754 1 0.308753 0.310287 0.875614
755 1 0.313383 0.253193 0.935397
758 1 0.434861 0.312293 0.876166
1268 1 0.498395 0.312008 0.937118
765 1 0.374677 0.373829 0.878561
763 1 0.309744 0.375813 0.936345
762 1 0.312258 0.440942 0.875722
768 1 0.374725 0.438188 0.93382
649 1 0.253032 0.371714 0.997833
653 1 0.371944 0.372983 0.99814
760 1 0.376215 0.312792 0.939828
650 1 0.314558 0.436541 0.997646
767 1 0.437267 0.379135 0.938544
654 1 0.436253 0.435998 0.997951
773 1 0.374266 0.499332 0.995833
887 1 0.437153 0.497752 0.938312
771 1 0.310028 0.504141 0.0622521
776 1 0.375437 0.559638 0.0616854
775 1 0.437084 0.501108 0.0606117
777 1 0.250548 0.620591 0.000226381
783 1 0.432799 0.623279 0.062299
778 1 0.310619 0.686409 0.00207741
784 1 0.373659 0.686471 0.0597341
1289 1 0.497783 0.626862 0.000650931
901 1 0.373367 0.748093 0.00274115
1409 1 0.495084 0.749837 0.00461675
779 1 0.314447 0.624725 0.0676004
1305 1 0.499152 0.623344 0.122718
797 1 0.372542 0.627099 0.123882
798 1 0.432961 0.686346 0.123876
1292 1 0.496805 0.68592 0.066576
913 1 0.250605 0.747824 0.123518
786 1 0.314609 0.562084 0.12778
790 1 0.436712 0.562049 0.127976
793 1 0.251226 0.622225 0.126168
795 1 0.313354 0.621941 0.185904
794 1 0.308815 0.68795 0.131365
917 1 0.374463 0.748231 0.125116
800 1 0.372976 0.690327 0.187486
788 1 0.253611 0.556472 0.189903
802 1 0.317896 0.559148 0.248246
792 1 0.375762 0.559037 0.189807
806 1 0.437117 0.564026 0.249812
799 1 0.434896 0.626183 0.187526
1321 1 0.496648 0.628447 0.246985
796 1 0.251695 0.687976 0.187512
929 1 0.253611 0.748 0.246831
814 1 0.435292 0.689317 0.248407
801 1 0.256414 0.500939 0.25097
1316 1 0.498828 0.565908 0.31145
810 1 0.309895 0.683989 0.253917
813 1 0.37523 0.629717 0.251443
815 1 0.438078 0.626226 0.311557
931 1 0.309053 0.747669 0.309733
816 1 0.376116 0.688842 0.312319
804 1 0.256853 0.560665 0.312542
817 1 0.255022 0.503622 0.372111
1329 1 0.499517 0.504728 0.372329
808 1 0.373996 0.56616 0.313231
811 1 0.313354 0.62619 0.317118
1324 1 0.497602 0.686771 0.314048
823 1 0.437584 0.502956 0.435915
818 1 0.316038 0.565532 0.376944
822 1 0.438884 0.565266 0.376461
825 1 0.254925 0.626251 0.376177
829 1 0.376749 0.625675 0.376015
830 1 0.443586 0.685532 0.377136
826 1 0.313985 0.690369 0.375124
832 1 0.371651 0.688279 0.436609
834 1 0.316004 0.561719 0.499921
820 1 0.257229 0.562551 0.438032
827 1 0.31535 0.622959 0.438579
824 1 0.378475 0.565266 0.438288
831 1 0.440177 0.624098 0.439903
838 1 0.438215 0.564553 0.49943
828 1 0.252824 0.683941 0.438504
845 1 0.377812 0.626119 0.496636
1340 1 0.49942 0.68462 0.438349
846 1 0.438979 0.685538 0.496714
947 1 0.311494 0.748779 0.438353
833 1 0.250922 0.502404 0.505039
836 1 0.253366 0.567019 0.560715
840 1 0.376065 0.566699 0.56094
841 1 0.251766 0.629588 0.500766
847 1 0.438189 0.62664 0.560951
1356 1 0.497898 0.686048 0.557759
842 1 0.309648 0.691773 0.50039
835 1 0.314122 0.501329 0.566868
839 1 0.434698 0.502926 0.564149
1348 1 0.499268 0.558132 0.568204
843 1 0.311158 0.628293 0.565085
848 1 0.375157 0.685559 0.563066
862 1 0.439997 0.688786 0.623441
849 1 0.253117 0.504828 0.62533
853 1 0.37655 0.504094 0.625996
1361 1 0.499728 0.501735 0.629641
850 1 0.315452 0.564912 0.626889
854 1 0.439688 0.570635 0.626202
858 1 0.311063 0.684833 0.625933
861 1 0.37113 0.62523 0.627039
981 1 0.369494 0.747191 0.626419
983 1 0.439151 0.749866 0.685836
851 1 0.31489 0.502455 0.69294
855 1 0.435809 0.500168 0.688382
852 1 0.253389 0.565204 0.691052
856 1 0.377371 0.56327 0.688695
1364 1 0.499486 0.564363 0.687881
870 1 0.438229 0.564147 0.748714
859 1 0.310342 0.625588 0.688554
863 1 0.437526 0.626179 0.68829
1372 1 0.499273 0.685021 0.688849
979 1 0.308008 0.748215 0.690749
874 1 0.309546 0.689015 0.748405
864 1 0.373835 0.689168 0.688405
997 1 0.37253 0.74879 0.747498
878 1 0.43843 0.690155 0.74973
865 1 0.251436 0.501295 0.751372
868 1 0.250202 0.562696 0.809437
866 1 0.313856 0.564757 0.751297
872 1 0.376814 0.563039 0.81199
877 1 0.370955 0.628614 0.753786
879 1 0.43592 0.627242 0.81172
1385 1 0.49947 0.625683 0.754205
1505 1 0.499405 0.7493 0.751316
885 1 0.373849 0.501292 0.873802
871 1 0.439684 0.50391 0.812916
886 1 0.437641 0.561493 0.874678
875 1 0.312383 0.630459 0.813846
893 1 0.374893 0.627111 0.872298
995 1 0.312142 0.749409 0.813035
1013 1 0.373819 0.748852 0.874379
880 1 0.375468 0.688902 0.813783
894 1 0.439356 0.688528 0.872508
882 1 0.309461 0.561751 0.87557
1401 1 0.499081 0.623853 0.875806
890 1 0.310128 0.6872 0.87729
895 1 0.435537 0.625668 0.936816
1009 1 0.255213 0.748232 0.877802
883 1 0.310264 0.50043 0.939113
774 1 0.432894 0.56091 0.998173
1396 1 0.497474 0.561374 0.940618
1281 1 0.495137 0.501516 0.999793
891 1 0.307871 0.621455 0.938008
884 1 0.250759 0.563067 0.937511
888 1 0.371821 0.564653 0.938017
770 1 0.313586 0.565722 0.998237
782 1 0.437315 0.685816 0.998547
781 1 0.375194 0.626536 0.996896
896 1 0.370485 0.687715 0.937917