LAMMPS (15 Sep 2022)
OMP_NUM_THREADS environment is not set. Defaulting to 1 thread. (src/comm.cpp:98)
  using 1 OpenMP thread(s) per MPI task
Lattice spacing in x,y,z = 1.7099759 1.7099759 1.7099759
Created orthogonal box = (0 0 0) to (13.679808 13.679808 13.679808)
  4 by 4 by 4 MPI processor grid
Created 2048 atoms
  using lattice units in orthogonal box = (0 0 0) to (13.679808 13.679808 13.679808)
  create_atoms CPU = 0.002 seconds
Generated 0 of 0 mixed pair_coeff terms from geometric mixing rule
Neighbor list info ...
  update: every = 1 steps, delay = 0 steps, check = yes
  max neighbors/atom: 2000, page size: 100000
  master list distance cutoff = 1.3
  ghost atom cutoff = 1.3
  binsize = 0.65, bins = 22 22 22
  1 neighbor lists, perpetual/occasional/extra = 1 0 0
  (1) pair lj/cut, perpetual
      attributes: half, newton on
      pair build: half/bin/atomonly/newton
      stencil: half/bin/3d
      bin: standard
Setting up Verlet run ...
  Unit style    : lj
  Current step  : 0
  Time step     : 0.01
Per MPI rank memory allocation (min/avg/max) = 3.064 | 3.064 | 3.064 Mbytes
   Step          Temp          E_pair         E_mol          TotEng         Press     
         0   3              0              0              4.4978027      2.3988281    
       500   3.0496535      0.97433846     0              5.546585       12.345683    
      1000   2.996727       1.0090053      0              5.5019009      12.504462    
      1500   2.9853128      0.96573775     0              5.4415205      12.16359     
      2000   2.9557995      0.90893092     0              5.3404653      11.889992    
      2500   2.9777385      1.0064294      0              5.4708563      12.490654    
      3000   2.9531177      0.96597485     0              5.3934885      12.107745    
      3500   2.9712898      0.93820006     0              5.3929585      12.112921    
      4000   3.0039524      0.98185711     0              5.4855855      12.374565    
      4500   3.0504201      0.98910477     0              5.5625007      12.43717     
      5000   3.0195245      0.96519773     0              5.4922728      12.242638    
      5500   3.0665952      1.0011003      0              5.598747       12.607815    
      6000   2.9333609      0.97816036     0              5.3760533      12.303605    
      6500   2.9971746      0.98953305     0              5.4830997      12.201329    
      7000   3.060432       0.84791007     0              5.4363166      11.401336    
      7500   2.9733243      0.93403221     0              5.391841       12.024193    
      8000   2.9945582      0.97184104     0              5.461485       12.125869    
      8500   3.0280662      0.98491879     0              5.5248002      12.410121    
      9000   2.9221086      1.0427728      0              5.4237955      12.835353    
      9500   2.9944325      0.99435532     0              5.4838109      12.538433    
     10000   2.9937459      1.0451252      0              5.5335513      12.867674    
     10500   2.964045       1.0352759      0              5.4791725      12.610205    
     11000   3.0519542      0.95362307     0              5.5293191      12.091645    
     11500   3.0963886      1.0385991      0              5.6809141      12.805192    
     12000   3.0944331      0.9334639      0              5.5728471      11.920076    
     12500   3.0506119      1.0188928      0              5.5925764      12.67388     
     13000   3.0010108      1.0267455      0              5.5260638      12.481689    
     13500   3.0397782      0.97157796     0              5.5290189      12.270409    
     14000   3.1021958      0.94589807     0              5.5969196      12.201599    
     14500   3.0401711      1.0221572      0              5.5801872      12.772025    
     15000   2.9658439      1.0428592      0              5.4894528      12.536155    
     15500   3.035894       0.91534433     0              5.4669618      11.936752    
     16000   3.0131359      0.95112624     0              5.4686233      12.246756    
     16500   2.9764091      0.97378482     0              5.4362184      12.354378    
     17000   2.9397252      0.95853782     0              5.3659725      12.182912    
     17500   2.931723       0.95552446     0              5.3509617      12.054192    
     18000   2.9011098      1.0045292      0              5.3540691      12.457139    
     18500   2.9566671      0.92055911     0              5.3533942      11.952521    
     19000   2.9122894      1.071501       0              5.4378021      13.023993    
     19500   2.9416029      1.0137553      0              5.4240052      12.662453    
     20000   2.9787496      0.92797854     0              5.3939212      11.908008    
     20500   2.9597744      0.94726476     0              5.3847586      12.04459     
     21000   2.9829285      0.99936972     0              5.4715777      12.526383    
     21500   2.979639       1.047684       0              5.5149602      12.70989     
     22000   2.9675615      0.98917209     0              5.4383408      12.334317    
     22500   2.9845093      1.0185419      0              5.4931199      12.653568    
     23000   3.0122699      0.9424237      0              5.4586223      12.082185    
     23500   2.9631361      0.96423501     0              5.4067688      12.325555    
     24000   2.9497689      1.0325359      0              5.4550287      12.648932    
     24500   3.0333917      1.0007958      0              5.5486616      12.509917    
     25000   3.0133978      1.0370422      0              5.5549318      12.721147    
     25500   3.0192672      0.98869418     0              5.5153836      12.300903    
     26000   3.0149376      1.0464014      0              5.5665996      12.825223    
     26500   3.0549545      0.96536822     0              5.5455624      12.351866    
     27000   3.1259821      0.95554535     0              5.6422289      12.253281    
     27500   3.0752018      0.96859646     0              5.5791469      12.401628    
     28000   3.0183838      1.0092259      0              5.5345909      12.501492    
     28500   2.8640727      1.0226692      0              5.3166805      12.421219    
     29000   2.9884775      0.9514954      0              5.4320229      12.17712     
     29500   2.897728       0.94715076     0              5.2916205      11.973249    
     30000   2.9765143      0.96847181     0              5.4310633      12.136592    
     30500   2.9498951      0.99307523     0              5.4157573      12.419199    
     31000   3.0229392      0.90748592     0              5.4396807      11.80612     
     31500   2.9569979      1.0131987      0              5.4465297      12.534378    
     32000   3.0347555      0.95943636     0              5.5093469      12.290052    
     32500   3.0092758      1.0070473      0              5.5187569      12.665543    
     33000   3.0219857      0.96265354     0              5.4934188      12.267913    
     33500   2.9848184      0.99331349     0              5.468355       12.323161    
     34000   2.9580819      1.0214902      0              5.4564466      12.570269    
     34500   2.8907722      0.91859436     0              5.2526354      11.841164    
     35000   2.9837465      0.94297937     0              5.4164137      12.12697     
     35500   2.9628969      0.97590595     0              5.4180812      12.293305    
     36000   2.8973458      1.0526259      0              5.3965226      12.701743    
     36500   3.0035482      0.92715332     0              5.4302757      11.9738      
     37000   3.0592673      0.94585222     0              5.5325125      12.192333    
     37500   3.0297305      0.96685633     0              5.509233       12.319259    
     38000   3.0318076      0.98998602     0              5.5354769      12.487561    
     38500   3.0486027      0.92094162     0              5.4916128      12.027129    
     39000   3.0049968      0.98314337     0              5.4884376      12.318966    
     39500   2.9654751      0.99084582     0              5.4368865      12.420586    
     40000   2.9952664      0.97959437     0              5.4703002      12.291155    
     40500   3.0252871      0.98318011     0              5.5188949      12.188       
     41000   2.9548987      1.0246446      0              5.4548283      12.65235     
     41500   2.9594835      0.91576764     0              5.3528253      11.72473     
     42000   2.9706067      0.95196259     0              5.4056969      12.140668    
     42500   3.0157102      0.92120167     0              5.4425582      11.957691    
     43000   2.9390394      0.92311253     0              5.329519       11.753503    
     43500   2.9871543      0.96058133     0              5.4391249      12.161567    
     44000   2.9783078      1.0081588      0              5.4734391      12.531465    
     44500   3.047707       0.96924352     0              5.5385719      12.149244    
     45000   3.0519985      0.99781517     0              5.5735776      12.614985    
     45500   3.0443345      0.99171356     0              5.5559855      12.473542    
     46000   3.0347688      0.99095918     0              5.5408896      12.435644    
     46500   3.0365192      0.93385971     0              5.4864145      11.806189    
     47000   3.0123903      1.0126123      0              5.5289915      12.603321    
     47500   3.0893405      0.96520183     0              5.5969499      12.279091    
     48000   3.0612211      0.9887863      0              5.5783758      12.406476    
     48500   3.1020094      0.9987803      0              5.6495224      12.538962    
     49000   3.0757388      0.99086365     0              5.6022191      12.448285    
     49500   3.0222829      0.99533807     0              5.5265488      12.448888    
     50000   3.0442111      1.0033087      0              5.5673957      12.481911    
Loop time of 2.73283 on 64 procs for 50000 steps with 2048 atoms

Performance: 15807769.259 tau/day, 18296.029 timesteps/s, 37.470 Matom-step/s
99.5% CPU use with 64 MPI tasks x 1 OpenMP threads

MPI task timing breakdown:
Section |  min time  |  avg time  |  max time  |%varavg| %total
---------------------------------------------------------------
Pair    | 0.054843   | 0.0611     | 0.066338   |   1.3 |  2.24
Neigh   | 0.28675    | 0.2919     | 0.30488    |   0.6 | 10.68
Comm    | 1.3761     | 1.5267     | 1.7048     |   8.1 | 55.86
Output  | 0.0038008  | 0.0039105  | 0.00601    |   0.4 |  0.14
Modify  | 0.23072    | 0.51122    | 0.68457    |  16.8 | 18.71
Other   |            | 0.338      |            |       | 12.37

Nlocal:             32 ave          38 max          26 min
Histogram: 5 3 8 1 12 14 5 9 4 3
Nghost:        142.594 ave         155 max         130 min
Histogram: 3 2 6 7 13 11 11 6 2 3
Neighs:        116.656 ave         148 max          81 min
Histogram: 3 5 4 9 10 8 9 2 8 6

Total # of neighbors = 7466
Ave neighs/atom = 3.6455078
Neighbor list builds = 20264
Dangerous builds = 0
Generated 0 of 0 mixed pair_coeff terms from geometric mixing rule
Setting up Verlet run ...
  Unit style    : lj
  Current step  : 50000
  Time step     : 0.01
Per MPI rank memory allocation (min/avg/max) = 3.106 | 3.106 | 3.106 Mbytes
   Step          Temp          E_pair         E_mol          TotEng         Press     
     50000   3.0442111      1.0033087      0              5.5673957      12.481911    
     50500   3.0147487      0.98385574     0              5.5037707      12.351967    
     51000   3.0157211      0.93706056     0              5.4584334      12.204641    
     51500   3.0425081      1.0191601      0              5.5806938      12.537264    
     52000   3.0152054      1.0068324      0              5.5274321      12.434473    
     52500   2.9849102      0.93349621     0              5.4086753      11.988623    
     53000   2.9343745      0.92698526     0              5.3263977      11.865673    
     53500   2.8655973      0.89296596     0              5.1892631      11.409924    
     54000   2.8782567      0.94269558     0              5.2579726      11.989877    
     54500   2.8897967      0.97156709     0              5.3041456      12.140787    
     55000   2.7967651      0.88347124     0              5.0765705      11.470831    
     55500   2.8398524      0.90458362     0              5.1622823      11.699222    
     56000   2.7639247      0.91455595     0              5.0584187      11.730845    
     56500   2.7903805      0.88023622     0              5.0637632      11.610773    
     57000   2.7846584      0.84874797     0              5.0236961      11.182184    
     57500   2.7677277      0.8681707      0              5.0177351      11.29939     
     58000   2.692638       0.93483852     0              4.9718234      11.836189    
     58500   2.72068        0.89897094     0              4.9779983      11.496062    
     59000   2.6575727      0.95059395     0              4.9350065      11.764919    
     59500   2.6541755      0.82168539     0              4.8010046      10.903366    
     60000   2.6602068      0.88325332     0              4.8716152      11.331702    
     60500   2.632673       0.85198443     0              4.7990657      10.987172    
     61000   2.7108862      0.8015052      0              4.865849       10.833788    
     61500   2.5980883      0.92069505     0              4.8159246      11.602256    
     62000   2.6390076      0.82601228     0              4.7825909      10.990112    
     62500   2.6554844      0.84183813     0              4.8231198      11.158763    
     63000   2.6028233      0.87511087     0              4.7774395      11.229993    
     63500   2.6170517      0.82856252     0              4.7522233      10.908842    
     64000   2.5426549      0.76711249     0              4.5792325      10.384784    
     64500   2.5444848      0.80675147     0              4.621615       10.728937    
     65000   2.5389562      0.80906323     0              4.6156379      10.575718    
     65500   2.5602875      0.79848483     0              4.6370409      10.643781    
     66000   2.5661041      0.78997693     0              4.6372536      10.665606    
     66500   2.4985945      0.83947639     0              4.5855381      11.002534    
     67000   2.517388       0.88774884     0              4.6619871      11.259501    
     67500   2.5479002      0.7170338      0              4.537018       9.9628885    
     68000   2.5073045      0.74576261     0              4.504883       10.107923    
     68500   2.4528748      0.810024       0              4.4875396      10.703324    
     69000   2.4411933      0.78822157     0              4.4482235      10.44398     
     69500   2.465594       0.75855828     0              4.4551434      10.22575     
     70000   2.4929364      0.77094582     0              4.5085246      10.339308    
     70500   2.4693793      0.73480745     0              4.4370677      10.135271    
     71000   2.4399817      0.74096374     0              4.3991492      10.122383    
     71500   2.3650732      0.70146987     0              4.2473474      9.8394755    
     72000   2.3596677      0.7211918      0              4.2589651      9.9003486    
     72500   2.3920993      0.69352051     0              4.2799174      9.694263     
     73000   2.3023103      0.73273735     0              4.1845166      9.8614858    
     73500   2.3230621      0.70727085     0              4.1901625      9.769867     
     74000   2.3125193      0.69242774     0              4.1595129      9.6994867    
     74500   2.2749987      0.73211863     0              4.1429505      9.8011877    
     75000   2.2271558      0.72461132     0              4.0637138      9.7899274    
     75500   2.1889826      0.70678029     0              3.988651       9.6343514    
     76000   2.2025031      0.73027125     0              4.0324127      9.7723114    
     76500   2.2132125      0.6791377      0              3.9973354      9.3990557    
     77000   2.2350872      0.67646398     0              4.0274577      9.3633626    
     77500   2.2112913      0.69821829     0              4.0135356      9.5353639    
     78000   2.2185064      0.71713356     0              4.0432682      9.8460209    
     78500   2.1708055      0.66500784     0              3.9196261      9.2701781    
     79000   2.1469886      0.64666829     0              3.8655787      9.219815     
     79500   2.0746139      0.66799022     0              3.7783916      9.1659165    
     80000   2.1310952      0.65257788     0              3.8476599      9.1288316    
     80500   2.1070209      0.68043774     0              3.8394258      9.2985932    
     81000   2.1269416      0.65122583     0              3.8400804      9.0746784    
     81500   2.0739936      0.61769979     0              3.7271712      8.6665179    
     82000   2.0146662      0.66096725     0              3.6814909      9.1234721    
     82500   2.0178207      0.60725177     0              3.6325049      8.6946678    
     83000   2.0441819      0.6037979      0              3.6685736      8.7333376    
     83500   2.0150443      0.61127888     0              3.6323694      8.7450392    
     84000   1.9813424      0.56236381     0              3.5329262      8.2527853    
     84500   1.9643783      0.64486911     0              3.5899978      8.9238335    
     85000   1.9219384      0.65364176     0              3.5351416      8.9679806    
     85500   1.9322494      0.59076623     0              3.4877251      8.5320134    
     86000   1.9619186      0.55227813     0              3.4937191      8.1344955    
     86500   1.9401099      0.57052886     0              3.4792728      8.306001     
     87000   1.8861344      0.5859357      0              3.4137558      8.3999455    
     87500   1.9048966      0.58762726     0              3.443577       8.3617088    
     88000   1.9124057      0.54103165     0              3.4082395      8.0421243    
     88500   1.8539625      0.63739157     0              3.4169774      8.6955723    
     89000   1.8962121      0.57189077     0              3.4148202      8.279043     
     89500   1.86965        0.59059268     0              3.3936984      8.3630656    
     90000   1.891293       0.55471897     0              3.3902733      8.0677173    
     90500   1.8388808      0.51474014     0              3.2717145      7.6570578    
     91000   1.8057652      0.53935834     0              3.2466836      7.9919872    
     91500   1.7779513      0.5910187      0              3.2566435      8.4678854    
     92000   1.8044874      0.55219624     0              3.2576057      8.0717934    
     92500   1.8465675      0.51205553     0              3.2805543      7.7144608    
     93000   1.7718752      0.53268787     0              3.1892029      7.8549925    
     93500   1.7661026      0.52145863     0              3.169319       7.7077292    
     94000   1.7663736      0.54275213     0              3.1910187      7.9906909    
     94500   1.7527483      0.48143702     0              3.1092758      7.3629489    
     95000   1.7282934      0.48811244     0              3.0792867      7.4008406    
     95500   1.6708841      0.48846084     0              2.9935632      7.3890449    
     96000   1.6315436      0.47073421     0              2.9168546      7.1772315    
     96500   1.6427718      0.49081263     0              2.9537671      7.2984749    
     97000   1.6753319      0.44919079     0              2.9609617      7.0881476    
     97500   1.6331644      0.49692066     0              2.9454711      7.4056559    
     98000   1.6182984      0.48393045     0              2.9101927      7.3010463    
     98500   1.6313006      0.47994582     0              2.9257019      7.2922386    
     99000   1.5917044      0.4859142      0              2.872305       7.3244709    
     99500   1.5611645      0.47043783     0              2.8110411      7.1733119    
    100000   1.5928263      0.4314217      0              2.8194945      6.8318791    
    100500   1.5856898      0.45472152     0              2.8320948      7.0331654    
    101000   1.5124187      0.43577082     0              2.7032912      6.7731352    
    101500   1.5043953      0.42774231     0              2.6832333      6.6893852    
    102000   1.4691159      0.40410122     0              2.606699       6.4923405    
    102500   1.4847814      0.40738085     0              2.6334655      6.6075107    
    103000   1.4627906      0.39905235     0              2.5921669      6.4151954    
    103500   1.4210382      0.40779663     0              2.5383131      6.5327741    
    104000   1.3983695      0.42583722     0              2.5223673      6.638098     
    104500   1.4046052      0.40784593     0              2.513725       6.5167776    
    105000   1.4082872      0.39070877     0              2.5021082      6.2636734    
    105500   1.3948488      0.39396821     0              2.4852198      6.2814172    
    106000   1.4171007      0.40337659     0              2.5279897      6.3988083    
    106500   1.3772583      0.39801311     0              2.4628918      6.4431498    
    107000   1.3533833      0.38924259     0              2.4183263      6.2736723    
    107500   1.3443059      0.3484638      0              2.363938       5.8668633    
    108000   1.3219938      0.37168103     0              2.3537034      6.0483837    
    108500   1.2930411      0.36654757     0              2.3051621      6.0177764    
    109000   1.3045325      0.33923002     0              2.2950733      5.7446773    
    109500   1.2372156      0.33465715     0              2.1895744      5.5953711    
    110000   1.2084804      0.36565368     0              2.1774892      5.9319177    
    110500   1.2134612      0.33956991     0              2.1588729      5.6293604    
    111000   1.2013733      0.35911712     0              2.1602971      5.8098765    
    111500   1.2121227      0.32459703     0              2.1418933      5.5113634    
    112000   1.1692393      0.34479371     0              2.0977962      5.7304704    
    112500   1.1820148      0.32213355     0              2.09429        5.5338558    
    113000   1.1369674      0.32926057     0              2.0338789      5.5781894    
    113500   1.1707951      0.28372325     0              2.0390584      5.0338747    
    114000   1.1409162      0.29833569     0              2.0088743      5.2137296    
    114500   1.102944       0.30455369     0              1.9581619      5.2415444    
    115000   1.1111701      0.29957798     0              1.9655193      5.2065813    
    115500   1.1132308      0.29203497     0              1.9610658      5.0674721    
    116000   1.0819423      0.29114168     0              1.9132627      5.1178491    
    116500   1.0616402      0.28188949     0              1.8735723      4.964048     
    117000   1.0569087      0.27220723     0              1.8567962      4.8539097    
    117500   1.0402365      0.27376465     0              1.8333576      4.8796945    
    118000   0.98559577     0.27445806     0              1.7521298      4.8807355    
    118500   0.99395321     0.28784502     0              1.7780468      4.9173571    
    119000   0.99381705     0.24070303     0              1.7307007      4.5101785    
    119500   0.99313017     0.23251279     0              1.7214807      4.3637469    
    120000   0.95434519     0.24632315     0              1.677142       4.5019264    
    120500   0.95020378     0.2569065      0              1.6815162      4.6507653    
    121000   0.97823665     0.22924785     0              1.6958863      4.389514     
    121500   0.93359704     0.22953549     0              1.6292473      4.3258509    
    122000   0.94138386     0.218733       0              1.6301193      4.2072216    
    122500   0.89422269     0.20431659     0              1.5449957      4.0272341    
    123000   0.85200441     0.22075426     0              1.4981368      4.1873831    
    123500   0.85279071     0.20814938     0              1.4867108      4.0869938    
    124000   0.85553306     0.20272827     0              1.4854012      4.0144909    
    124500   0.84956602     0.19579888     0              1.4695257      3.8706225    
    125000   0.83700173     0.21534487     0              1.4702344      4.0182322    
    125500   0.81907533     0.20959998     0              1.4376131      4.0144695    
    126000   0.8004644      0.20339918     0              1.4035095      3.9364197    
    126500   0.78866374     0.18585294     0              1.3682709      3.7657943    
    127000   0.76641062     0.18849638     0              1.337551       3.7671289    
    127500   0.74557982     0.1939045      0              1.3117281      3.7676255    
    128000   0.72336153     0.19056583     0              1.2750783      3.73529      
    128500   0.7231898      0.16159442     0              1.2458494      3.3305331    
    129000   0.69273417     0.16998888     0              1.2085828      3.4278372    
    129500   0.68539432     0.1712482      0              1.1988377      3.4486325    
    130000   0.67118718     0.17511314     0              1.1814023      3.4641667    
    130500   0.66968051     0.16142302     0              1.1654533      3.366448     
    131000   0.65132043     0.12988064     0              1.1063842      2.9307128    
    131500   0.63265692     0.14834366     0              1.0968657      3.1478218    
    132000   0.63328926     0.13642408     0              1.0858941      3.022516     
    132500   0.60792222     0.14028767     0              1.0517257      3.0027115    
    133000   0.59812884     0.13717232     0              1.0339275      2.9701312    
    133500   0.58377244     0.13477207     0              1.0100032      2.938683     
    134000   0.56639346     0.12980993     0              0.97898528     2.8529365    
    134500   0.5446568      0.11548128     0              0.93206756     2.7306336    
    135000   0.52878475     0.11164989     0              0.90443973     2.5871744    
    135500   0.5220118      0.10985761     0              0.89249297     2.5479687    
    136000   0.51044317     0.10650541     0              0.87179631     2.4969075    
    136500   0.48914591     0.10256045     0              0.83592105     2.4165547    
    137000   0.47051222     0.10337501     0              0.80879872     2.4346765    
    137500   0.45214216     0.10474978     0              0.78263187     2.4370312    
    138000   0.44913619     0.090142981    0              0.76351831     2.2458186    
    138500   0.43365836     0.082673536    0              0.73284345     2.0934444    
    139000   0.41599136     0.079684213    0              0.70336658     2.0190311    
    139500   0.40588087     0.077787814    0              0.68631184     2.0153509    
    140000   0.38836179     0.089767023    0              0.67202526     2.1280253    
    140500   0.38390007     0.077235641    0              0.65280457     2.0024389    
    141000   0.35169128     0.075140525    0              0.60241985     1.9505803    
    141500   0.33874783     0.070174714    0              0.57804835     1.8581397    
    142000   0.3360736      0.061304304    0              0.56516856     1.6984871    
    142500   0.32216718     0.064378014    0              0.54739283     1.710973     
    143000   0.29738063     0.057866743    0              0.50371988     1.6337157    
    143500   0.28550387     0.05051139     0              0.47855809     1.4885571    
    144000   0.27522881     0.051561629    0              0.46420327     1.4765445    
    144500   0.26109203     0.04690109     0              0.4383479      1.3859302    
    145000   0.24332575     0.039675314    0              0.40448571     1.2685545    
    145500   0.22893796     0.038895846    0              0.38213511     1.2479237    
    146000   0.2147132      0.035587825    0              0.35750037     1.1429206    
    146500   0.20074056     0.031481172    0              0.33244498     1.0878638    
    147000   0.19352576     0.03079625     0              0.32094315     1.0540794    
    147500   0.17146976     0.025738805    0              0.28281785     0.93943575   
    148000   0.15549573     0.024524976    0              0.25765468     0.87577985   
    148500   0.14417878     0.018775159    0              0.23493773     0.73056303   
    149000   0.12979328     0.018550839    0              0.2131457      0.7407002    
    149500   0.11557579     0.015966935    0              0.18924597     0.68759088   
    150000   0.10167698     0.012775865    0              0.16521686     0.56576375   
Loop time of 5.11601 on 64 procs for 100000 steps with 2048 atoms

Performance: 16888155.706 tau/day, 19546.477 timesteps/s, 40.031 Matom-step/s
99.5% CPU use with 64 MPI tasks x 1 OpenMP threads

MPI task timing breakdown:
Section |  min time  |  avg time  |  max time  |%varavg| %total
---------------------------------------------------------------
Pair    | 0.098091   | 0.11024    | 0.12059    |   1.9 |  2.15
Neigh   | 0.40063    | 0.41032    | 0.42954    |   0.8 |  8.02
Comm    | 2.4556     | 2.7473     | 3.11       |  12.1 | 53.70
Output  | 0.20548    | 0.20563    | 0.20734    |   0.0 |  4.02
Modify  | 0.40345    | 0.98076    | 1.3249     |  24.1 | 19.17
Other   |            | 0.6618     |            |       | 12.93

Nlocal:             32 ave          38 max          26 min
Histogram: 2 3 5 6 9 24 6 6 1 2
Nghost:        142.953 ave         156 max         129 min
Histogram: 1 2 7 5 16 15 8 4 2 4
Neighs:        123.156 ave         152 max          82 min
Histogram: 1 0 1 9 6 15 16 6 6 4

Total # of neighbors = 7882
Ave neighs/atom = 3.8486328
Neighbor list builds = 28414
Dangerous builds = 0
Total wall time: 0:00:07
LAMMPS (15 Sep 2022)
OMP_NUM_THREADS environment is not set. Defaulting to 1 thread. (src/comm.cpp:98)
  using 1 OpenMP thread(s) per MPI task
Lattice spacing in x,y,z = 1.6441414 1.6441414 1.6441414
Created orthogonal box = (0 0 0) to (13.153131 13.153131 13.153131)
  4 by 4 by 4 MPI processor grid
Created 2048 atoms
  using lattice units in orthogonal box = (0 0 0) to (13.153131 13.153131 13.153131)
  create_atoms CPU = 0.002 seconds
Generated 0 of 0 mixed pair_coeff terms from geometric mixing rule
Neighbor list info ...
  update: every = 1 steps, delay = 0 steps, check = yes
  max neighbors/atom: 2000, page size: 100000
  master list distance cutoff = 1.3
  ghost atom cutoff = 1.3
  binsize = 0.65, bins = 21 21 21
  1 neighbor lists, perpetual/occasional/extra = 1 0 0
  (1) pair lj/cut, perpetual
      attributes: half, newton on
      pair build: half/bin/atomonly/newton
      stencil: half/bin/3d
      bin: standard
Setting up Verlet run ...
  Unit style    : lj
  Current step  : 0
  Time step     : 0.01
Per MPI rank memory allocation (min/avg/max) = 3.063 | 3.063 | 3.063 Mbytes
   Step          Temp          E_pair         E_mol          TotEng         Press     
         0   3              0              0              4.4978027      2.6986816    
       500   3.064767       1.4079238      0              6.0028296      18.160815    
      1000   3.0432032      1.3897684      0              5.9523443      18.099024    
      1500   3.0018644      1.4377264      0              5.9383244      18.516198    
      2000   2.9471981      1.2518215      0              5.67046        17.086799    
      2500   2.9801351      1.3329554      0              5.8009754      17.671526    
      3000   3.0542812      1.3231665      0              5.9023514      17.852689    
      3500   3.0161045      1.1722048      0              5.6941525      16.409004    
      4000   2.9611713      1.3061936      0              5.7457818      17.483947    
      4500   2.9066093      1.2621154      0              5.6199004      16.96489     
      5000   2.9926558      1.292625       0              5.7794168      17.359691    
      5500   3.0032237      1.3219518      0              5.8245877      17.524476    
      6000   3.0269412      1.2735274      0              5.8117223      17.20921     
      6500   3.0407637      1.2654853      0              5.8244037      17.269369    
      7000   3.0485952      1.306809       0              5.877469       17.509283    
      7500   3.0343613      1.3753283      0              5.9246478      17.771972    
      8000   3.0772692      1.3477796      0              5.9614296      17.899619    
      8500   3.0223512      1.3555041      0              5.8868172      18.091368    
      9000   2.9783353      1.3018486      0              5.7671702      17.225396    
      9500   3.0108148      1.3648797      0              5.8788967      17.993625    
     10000   2.9603792      1.3238815      0              5.7622821      17.666574    
     10500   3.014898       1.2961573      0              5.8162961      17.364264    
     11000   3.0691105      1.2984505      0              5.8998684      17.672444    
     11500   2.9718378      1.3247577      0              5.7803378      17.52556     
     12000   3.0020214      1.366672       0              5.8675054      18.063594    
     12500   3.0093548      1.3096226      0              5.8214507      17.577479    
     13000   2.9813368      1.3131926      0              5.7830142      17.533918    
     13500   3.0496363      1.2766104      0              5.8488313      17.081592    
     14000   2.9152185      1.2686515      0              5.6393441      17.089383    
     14500   2.9727882      1.3482708      0              5.8052757      17.518247    
     15000   3.0207635      1.2013198      0              5.7302526      16.64682     
     15500   2.9460875      1.3735552      0              5.7905286      17.925778    
     16000   2.8961429      1.3825077      0              5.7246008      17.803121    
     16500   2.9220928      1.2902341      0              5.6712331      17.363288    
     17000   2.9884552      1.3330495      0              5.8135434      17.705507    
     17500   3.0010806      1.3441631      0              5.843586       17.890999    
     18000   3.0313424      1.324539       0              5.8693324      17.690487    
     18500   3.0821138      1.3468133      0              5.9677266      17.803176    
     19000   3.0623659      1.2600254      0              5.8513314      17.101455    
     19500   3.0436204      1.3430599      0              5.9062612      17.843566    
     20000   2.9515423      1.3156711      0              5.7408228      17.447434    
     20500   2.9442382      1.2819739      0              5.6961748      17.422038    
     21000   3.0080853      1.2619266      0              5.7718514      17.087801    
     21500   3.0001762      1.3222938      0              5.8203606      17.688554    
     22000   3.0326481      1.262617       0              5.809368       17.311129    
     22500   3.0018008      1.3317228      0              5.8322254      17.819909    
     23000   2.9578497      1.3179176      0              5.7525258      17.759867    
     23500   2.9350948      1.352637       0              5.7531296      17.661716    
     24000   2.946434       1.3206893      0              5.7381823      17.575152    
     24500   3.0018623      1.2997044      0              5.8002992      17.320427    
     25000   3.020135       1.3462705      0              5.874261       17.750873    
     25500   3.0389654      1.3769865      0              5.9332087      18.141779    
     26000   2.9798548      1.4122649      0              5.8798646      18.378932    
     26500   2.9927292      1.4000132      0              5.886915       17.999831    
     27000   2.9401569      1.3795156      0              5.7875975      17.811789    
     27500   3.028858       1.3409026      0              5.8819712      17.605985    
     28000   3.0609146      1.4415663      0              6.0306964      18.618067    
     28500   3.0411825      1.2939564      0              5.8535027      17.559704    
     29000   3.0676098      1.3801608      0              5.9793288      18.056627    
     29500   2.9675392      1.3291871      0              5.7783224      17.523595    
     30000   3.001055       1.2213134      0              5.7206978      16.821799    
     30500   2.9687848      1.2881366      0              5.7391393      17.240307    
     31000   2.9961332      1.2827329      0              5.7747383      17.369185    
     31500   2.9704781      1.3284227      0              5.7819641      17.774359    
     32000   3.0688885      1.2505881      0              5.8516731      17.045786    
     32500   3.0190989      1.3747354      0              5.9011725      18.066926    
     33000   3.0313768      1.3702858      0              5.9151308      18.135449    
     33500   2.9895418      1.3664732      0              5.8485962      17.830028    
     34000   3.1212717      1.317245       0              5.9968665      17.623489    
     34500   3.0220794      1.3274398      0              5.8583455      17.634443    
     35000   3.0816837      1.4031119      0              6.0233802      18.351403    
     35500   3.0040693      1.2777925      0              5.7816962      17.205856    
     36000   2.9822971      1.3148429      0              5.7861043      17.526801    
     36500   3.0096186      1.3348933      0              5.8471169      17.904823    
     37000   3.0187338      1.3602085      0              5.8860982      17.693067    
     37500   3.0700346      1.3414596      0              5.9442628      17.981561    
     38000   3.0001408      1.4229128      0              5.9209266      18.558663    
     38500   2.9725437      1.3027169      0              5.7593553      17.344672    
     39000   2.9204927      1.3302009      0              5.7088008      17.451466    
     39500   2.9083265      1.3568135      0              5.7171732      17.828312    
     40000   2.9723745      1.3146998      0              5.7710846      17.375546    
     40500   3.0084719      1.3005188      0              5.8110232      17.456698    
     41000   3.0408242      1.3142508      0              5.8732599      17.678479    
     41500   2.9837448      1.344817       0              5.8182488      17.792473    
     42000   3.0806584      1.3159355      0              5.9346667      17.57049     
     42500   3.0337538      1.3246143      0              5.873023       17.657799    
     43000   2.9572977      1.2133965      0              5.6471771      16.786159    
     43500   3.0138119      1.2804258      0              5.7989362      17.331898    
     44000   2.9332679      1.2963877      0              5.6941412      17.187065    
     44500   2.9940086      1.3460951      0              5.8349151      17.967443    
     45000   3.1277728      1.3342536      0              6.023622       17.776357    
     45500   3.0307571      1.3324992      0              5.876415       17.733175    
     46000   3.0231586      1.3070037      0              5.8395273      17.477016    
     46500   2.9999576      1.3949069      0              5.892646       18.063417    
     47000   2.9767287      1.3574886      0              5.8204014      17.775271    
     47500   3.032409       1.3078855      0              5.854278       17.492027    
     48000   2.9875529      1.3381225      0              5.8172637      17.770878    
     48500   3.0188787      1.3527884      0              5.8788954      18.003869    
     49000   3.1048198      1.3384046      0              5.9933602      17.71257     
     49500   3.0336444      1.3659685      0              5.9142132      18.099108    
     50000   2.9210117      1.3867406      0              5.7661188      17.925932    
Loop time of 2.8032 on 64 procs for 50000 steps with 2048 atoms

Performance: 15410932.266 tau/day, 17836.727 timesteps/s, 36.530 Matom-step/s
99.5% CPU use with 64 MPI tasks x 1 OpenMP threads

MPI task timing breakdown:
Section |  min time  |  avg time  |  max time  |%varavg| %total
---------------------------------------------------------------
Pair    | 0.064696   | 0.071721   | 0.083541   |   1.4 |  2.56
Neigh   | 0.31094    | 0.31445    | 0.32115    |   0.4 | 11.22
Comm    | 1.4282     | 1.5726     | 1.7633     |   7.9 | 56.10
Output  | 0.0037326  | 0.0052468  | 0.0074363  |   0.8 |  0.19
Modify  | 0.2265     | 0.50628    | 0.65706    |  16.3 | 18.06
Other   |            | 0.3329     |            |       | 11.88

Nlocal:             32 ave          38 max          26 min
Histogram: 2 2 5 8 9 21 8 5 2 2
Nghost:        151.984 ave         166 max         137 min
Histogram: 1 0 7 7 17 13 9 7 2 1
Neighs:        136.078 ave         165 max         103 min
Histogram: 2 2 6 6 11 14 5 12 3 3

Total # of neighbors = 8709
Ave neighs/atom = 4.2524414
Neighbor list builds = 20225
Dangerous builds = 0
Generated 0 of 0 mixed pair_coeff terms from geometric mixing rule
Setting up Verlet run ...
  Unit style    : lj
  Current step  : 50000
  Time step     : 0.01
Per MPI rank memory allocation (min/avg/max) = 3.105 | 3.105 | 3.105 Mbytes
   Step          Temp          E_pair         E_mol          TotEng         Press     
     50000   2.9210117      1.3867406      0              5.7661188      17.925932    
     50500   3.0145092      1.2402036      0              5.7597594      16.85906     
     51000   2.9346905      1.2887068      0              5.6885931      17.369065    
     51500   2.9323638      1.3241716      0              5.7205696      17.604385    
     52000   2.9636667      1.3190726      0              5.7624019      17.541257    
     52500   2.8898416      1.2817695      0              5.6144153      17.274619    
     53000   2.898717       1.2689446      0              5.614897       16.959189    
     53500   2.8905104      1.2980896      0              5.6317381      17.318172    
     54000   2.980132       1.2370525      0              5.7050677      16.898559    
     54500   2.8987817      1.3555545      0              5.7016038      17.8604      
     55000   2.8517843      1.3276089      0              5.6031967      17.512534    
     55500   2.8359735      1.2527518      0              5.5046349      16.90922     
     56000   2.8241499      1.2367045      0              5.4708608      16.821071    
     56500   2.7995128      1.1474126      0              5.3446314      15.923537    
     57000   2.7471332      1.178812       0              5.2974997      16.301787    
     57500   2.7587472      1.2121417      0              5.3482419      16.573368    
     58000   2.7854319      1.1585893      0              5.3346971      16.095849    
     58500   2.7512817      1.228381       0              5.3532884      16.628469    
     59000   2.795959       1.2102962      0              5.4021869      16.58349     
     59500   2.8709214      1.2464162      0              5.5506955      17.053747    
     60000   2.7631695      1.2352981      0              5.3780285      16.743824    
     60500   2.736403       1.1213576      0              5.2239579      15.818812    
     61000   2.6392594      1.1201833      0              5.0771394      15.748824    
     61500   2.5548109      1.2338291      0              5.0641743      16.41343     
     62000   2.6236286      1.0828217      0              5.016343       15.352848    
     62500   2.6300523      1.14185        0              5.0850021      15.76202     
     63000   2.6560224      1.0888821      0              5.0709704      15.452523    
     63500   2.6863012      1.1372831      0              5.1647673      15.906615    
     64000   2.5428914      1.2036884      0              5.0161631      16.229289    
     64500   2.6097986      1.1378355      0              5.050622       15.838604    
     65000   2.6098497      1.140491       0              5.053354       15.862592    
     65500   2.6231163      1.0867018      0              5.019455       15.305963    
     66000   2.5914684      1.1242486      0              5.0095531      15.74669     
     66500   2.5584921      1.1367838      0              4.9726481      15.76391     
     67000   2.5210127      1.1239186      0              4.9035912      15.528234    
     67500   2.4659529      1.0077274      0              4.7048506      14.61588     
     68000   2.4829769      1.0352922      0              4.7579389      14.813602    
     68500   2.4331756      1.0289742      0              4.6769555      14.676401    
     69000   2.4152778      1.0960492      0              4.7171969      15.261753    
     69500   2.4927021      1.086476       0              4.8237034      15.111353    
     70000   2.4983623      1.0135558      0              4.7592693      14.52849     
     70500   2.389279       1.0816164      0              4.6637849      15.202156    
     71000   2.3507604      1.03071        0              4.5551288      14.562484    
     71500   2.2999913      1.045084       0              4.4933864      14.749302    
     72000   2.3841497      0.97090479     0              4.5453831      14.145583    
     72500   2.3741359      1.0099038      0              4.5693687      14.496707    
     73000   2.3778671      1.0983264      0              4.6633854      15.212507    
     73500   2.3558842      1.002587       0              4.5346878      14.498929    
     74000   2.3278643      0.98275004     0              4.4728416      14.234155    
     74500   2.2722786      0.87400366     0              4.2807572      13.212117    
     75000   2.2365774      1.0011876      0              4.3544156      14.266379    
     75500   2.2238191      0.88186967     0              4.2159696      13.352661    
     76000   2.2023934      0.98061452     0              4.2825916      13.924715    
     76500   2.1910541      0.99260025     0              4.2775766      14.060497    
     77000   2.241472       0.91030572     0              4.270872       13.42899     
     77500   2.1797367      0.91104975     0              4.1790584      13.49451     
     78000   2.1072523      0.94274399     0              4.1020791      13.628675    
     78500   2.0784512      0.88990544     0              4.00606        13.205053    
     79000   2.1475915      0.87305505     0              4.0928693      13.108844    
     79500   2.1537418      0.89313691     0              4.1221722      13.146457    
     80000   2.1220415      0.90611878     0              4.0876268      13.548202    
     80500   2.0665967      0.86190505     0              3.9602865      12.795941    
     81000   2.1105868      0.86174942     0              4.0260837      13.006439    
     81500   2.0715387      0.85255554     0              3.9583463      12.866639    
     82000   2.0877233      0.86102954     0              3.9910854      12.909824    
     82500   2.124068       0.86483314     0              4.0493794      12.779686    
     83000   2.1090144      0.83958867     0              4.0015656      12.579665    
     83500   2.0280771      0.89189163     0              3.9325219      13.116949    
     84000   2.0436669      0.81108406     0              3.8750876      12.477457    
     84500   2.0023827      0.8453606      0              3.8474681      12.720656    
     85000   1.9864072      0.78182367     0              3.7599795      11.986842    
     85500   1.9703208      0.77759018     0              3.7316283      11.925682    
     86000   1.9222622      0.80939442     0              3.6913798      12.433434    
     86500   1.9318168      0.82982819     0              3.7261385      12.482379    
     87000   1.9335404      0.78013382     0              3.6790283      12.00683     
     87500   1.9291457      0.80185764     0              3.6941633      12.187359    
     88000   1.939118       0.78132841     0              3.6885851      12.059894    
     88500   1.8807585      0.77252542     0              3.5922857      11.896033    
     89000   1.8425765      0.76556462     0              3.5280799      11.744927    
     89500   1.8598441      0.7547496      0              3.5431535      11.757863    
     90000   1.9093999      0.73940503     0              3.6021065      11.593553    
     90500   1.9176585      0.73596505     0              3.6110483      11.530138    
     91000   1.8444649      0.78703129     0              3.5523778      11.852246    
     91500   1.8131079      0.73287436     0              3.4512082      11.325147    
     92000   1.7450875      0.7261915      0              3.3425446      11.560708    
     92500   1.7859557      0.71951101     0              3.3971365      11.256182    
     93000   1.7598387      0.75329185     0              3.3917609      11.732746    
     93500   1.8055432      0.70658729     0              3.4135797      11.252985    
     94000   1.7266071      0.76729057     0              3.3559366      11.701666    
     94500   1.7690262      0.70228477     0              3.3545283      11.175649    
     95000   1.68099        0.70497059     0              3.2252244      11.075724    
     95500   1.6476491      0.64753868     0              3.1178056      10.419181    
     96000   1.655192       0.64696584     0              3.1285415      10.497011    
     96500   1.6770467      0.67034202     0              3.1846838      10.660237    
     97000   1.6330823      0.68578391     0              3.1342113      10.949235    
     97500   1.6529587      0.65101764     0              3.129245       10.416992    
     98000   1.6507929      0.66580661     0              3.1407868      10.634507    
     98500   1.6486457      0.60098531     0              3.0727464      10.046338    
     99000   1.5774177      0.67343024     0              3.0384015      10.610988    
     99500   1.6090886      0.60144484     0              3.0138992      10.033613    
    100000   1.5534144      0.66419282     0              2.9931767      10.713043    
    100500   1.5502568      0.63184989     0              2.9560997      10.181027    
    101000   1.5438667      0.60313729     0              2.9178065      9.9874343    
    101500   1.5433998      0.56880688     0              2.8827762      9.5163049    
    102000   1.4947241      0.60940556     0              2.8503969      9.8664414    
    102500   1.4734026      0.61649196     0              2.8255167      10.14089     
    103000   1.4799215      0.59310866     0              2.811907       9.8183646    
    103500   1.4968672      0.54951636     0              2.7937208      9.4658756    
    104000   1.4549516      0.57344897     0              2.7548107      9.6888014    
    104500   1.417465       0.5965004      0              2.7216598      9.7641419    
    105000   1.445159       0.581675       0              2.748355       9.7150842    
    105500   1.4185519      0.54550309     0              2.672292       9.2772872    
    106000   1.4030947      0.52803931     0              2.6316538      9.0594012    
    106500   1.3913785      0.51902909     0              2.6050778      8.9846925    
    107000   1.3261375      0.54252334     0              2.5307583      9.1994913    
    107500   1.3273996      0.51128887     0              2.5014161      8.9133839    
    108000   1.3031816      0.49883082     0              2.4526487      8.7936791    
    108500   1.2625534      0.51207776     0              2.4049832      8.7118854    
    109000   1.256996       0.49150964     0              2.3760829      8.6070541    
    109500   1.2064956      0.46788618     0              2.2767459      8.3197309    
    110000   1.2605247      0.47514291     0              2.3650067      8.3850756    
    110500   1.2547934      0.47068879     0              2.3519599      8.3643303    
    111000   1.2606528      0.46808352     0              2.3581394      8.1455442    
    111500   1.2322099      0.44385651     0              2.2912689      8.0146074    
    112000   1.2145439      0.45948425     0              2.2804105      8.2530921    
    112500   1.2315942      0.4557355      0              2.3022248      8.1718888    
    113000   1.1614674      0.46325894     0              2.2046093      8.2125614    
    113500   1.1489447      0.46411413     0              2.1866897      8.1011054    
    114000   1.1269268      0.43545202     0              2.1250168      7.9044801    
    114500   1.1127599      0.42460745     0              2.0929323      7.7070431    
    115000   1.1228748      0.42630488     0              2.1097946      7.7153305    
    115500   1.1071121      0.40992218     0              2.0697795      7.5884264    
    116000   1.1036394      0.3999382      0              2.054589       7.383738     
    116500   1.0590901      0.42129858     0              2.009158       7.6359178    
    117000   1.0837398      0.39185086     0              2.0166668      7.3098539    
    117500   1.0480606      0.36723039     0              1.9385536      6.9907439    
    118000   1.0231204      0.38195796     0              1.9158892      7.1672572    
    118500   1.0279729      0.36966022     0              1.9108666      7.0542438    
    119000   0.99276148     0.38381611     0              1.8722312      7.1634859    
    119500   0.98788324     0.37189273     0              1.852994       7.0530937    
    120000   0.95414888     0.37162303     0              1.8021475      6.920964     
    120500   0.96578069     0.3404409      0              1.7884046      6.6287505    
    121000   0.97059128     0.3371393      0              1.7923153      6.5903806    
    121500   0.92393654     0.33070386     0              1.715932       6.4160969    
    122000   0.90559554     0.33701842     0              1.6947485      6.5006508    
    122500   0.91087632     0.30009845     0              1.6657458      6.070182     
    123000   0.88595411     0.31249229     0              1.6407746      6.2947002    
    123500   0.87149509     0.2938624      0              1.6004667      6.0752619    
    124000   0.84265235     0.29112857     0              1.5544899      5.921952     
    124500   0.83637347     0.2721287      0              1.5260763      5.6392476    
    125000   0.81823086     0.28722855     0              1.5139756      5.9193364    
    125500   0.80960105     0.30053152     0              1.5143401      6.0222204    
    126000   0.79873269     0.29601115     0              1.4935252      5.9522783    
    126500   0.79032058     0.27500149     0              1.4599035      5.6293358    
    127000   0.75421134     0.2945531      0              1.4253177      5.9529336    
    127500   0.76703176     0.26693006     0              1.4169159      5.5778793    
    128000   0.73557879     0.27891363     0              1.3817431      5.7562491    
    128500   0.72885652     0.23581129     0              1.3285622      5.1286335    
    129000   0.73109099     0.24482535     0              1.3409264      5.3153578    
    129500   0.68558383     0.23499899     0              1.2628726      5.0076212    
    130000   0.67324292     0.21134687     0              1.2207182      4.7653386    
    130500   0.66451389     0.21817147     0              1.2144556      4.9224036    
    131000   0.64811933     0.22043858     0              1.1921429      4.8626164    
    131500   0.62141847     0.21257017     0              1.1442427      4.7949691    
    132000   0.61637761     0.19377505     0              1.11789        4.4782653    
    132500   0.59567379     0.19931416     0              1.0923886      4.5603639    
    133000   0.59640047     0.19215597     0              1.0863198      4.4338584    
    133500   0.58798986     0.17511359     0              1.0566677      4.1649553    
    134000   0.5725677      0.1871214      0              1.0455536      4.3530775    
    134500   0.57070489     0.16615657     0              1.0217959      4.0680115    
    135000   0.54672022     0.17119523     0              0.99087512     4.1333672    
    135500   0.53378409     0.1644839      0              0.96476907     4.0115589    
    136000   0.51420039     0.15896999     0              0.92989396     3.954332     
    136500   0.48778489     0.14383279     0              0.87515287     3.6796888    
    137000   0.47225177     0.1360422      0              0.84407396     3.5107516    
    137500   0.45794366     0.13605817     0              0.82263825     3.4983718    
    138000   0.45140394     0.12880857     0              0.80558385     3.3271205    
    138500   0.45142451     0.11879893     0              0.79560507     3.2109188    
    139000   0.43521079     0.11407253     0              0.76656996     3.131229     
    139500   0.39041031     0.12947791     0              0.71480743     3.2603941    
    140000   0.37961537     0.11342448     0              0.6825695      3.072001     
    140500   0.37115837     0.10973505     0              0.66620076     2.9788997    
    141000   0.37133775     0.097247619    0              0.65398227     2.7916912    
    141500   0.35062573     0.097400202    0              0.62308199     2.759423     
    142000   0.32555441     0.088632498    0              0.57672566     2.6396319    
    142500   0.31684396     0.081435254    0              0.55646913     2.5148758    
    143000   0.30633947     0.079129107    0              0.53841394     2.394997     
    143500   0.28533975     0.081318327    0              0.50911896     2.416802     
    144000   0.27412873     0.064433529    0              0.47542584     2.0931853    
    144500   0.261731       0.064022899    0              0.4564277      2.1553359    
    145000   0.24525134     0.058317122    0              0.42601451     1.9691189    
    145500   0.23104321     0.059331654    0              0.40572724     1.8869297    
    146000   0.21545387     0.049369501    0              0.3723925      1.7244723    
    146500   0.20307846     0.046469047    0              0.350938       1.684118     
    147000   0.18540635     0.042704346    0              0.32067807     1.5835912    
    147500   0.17349029     0.041377715    0              0.30148608     1.5165943    
    148000   0.15874641     0.033273922    0              0.27127726     1.356567     
    148500   0.14540267     0.028737513    0              0.24673502     1.2015204    
    149000   0.1304088      0.026235734    0              0.22175341     1.14455      
    149500   0.11564324     0.022768675    0              0.19614883     1.0105187    
    150000   0.10128079     0.018607378    0              0.17045438     0.91991727   
Loop time of 5.09196 on 64 procs for 100000 steps with 2048 atoms

Performance: 16967917.460 tau/day, 19638.793 timesteps/s, 40.220 Matom-step/s
99.6% CPU use with 64 MPI tasks x 1 OpenMP threads

MPI task timing breakdown:
Section |  min time  |  avg time  |  max time  |%varavg| %total
---------------------------------------------------------------
Pair    | 0.11643    | 0.12994    | 0.153      |   2.0 |  2.55
Neigh   | 0.43414    | 0.44076    | 0.44691    |   0.5 |  8.66
Comm    | 2.4926     | 2.7896     | 3.16       |  12.0 | 54.78
Output  | 0.094016   | 0.094192   | 0.0965     |   0.1 |  1.85
Modify  | 0.42826    | 0.97944    | 1.3151     |  23.8 | 19.24
Other   |            | 0.6581     |            |       | 12.92

Nlocal:             32 ave          37 max          27 min
Histogram: 1 2 5 7 10 16 7 9 2 5
Nghost:        152.453 ave         161 max         141 min
Histogram: 1 1 4 4 10 13 10 6 9 6
Neighs:        144.094 ave         174 max         123 min
Histogram: 5 9 5 15 11 4 5 5 4 1

Total # of neighbors = 9222
Ave neighs/atom = 4.5029297
Neighbor list builds = 28271
Dangerous builds = 0
Total wall time: 0:00:07
LAMMPS (15 Sep 2022)
OMP_NUM_THREADS environment is not set. Defaulting to 1 thread. (src/comm.cpp:98)
  using 1 OpenMP thread(s) per MPI task
Lattice spacing in x,y,z = 1.5874011 1.5874011 1.5874011
Created orthogonal box = (0 0 0) to (12.699208 12.699208 12.699208)
  4 by 4 by 4 MPI processor grid
Created 2048 atoms
  using lattice units in orthogonal box = (0 0 0) to (12.699208 12.699208 12.699208)
  create_atoms CPU = 0.002 seconds
Generated 0 of 0 mixed pair_coeff terms from geometric mixing rule
Neighbor list info ...
  update: every = 1 steps, delay = 0 steps, check = yes
  max neighbors/atom: 2000, page size: 100000
  master list distance cutoff = 1.3
  ghost atom cutoff = 1.3
  binsize = 0.65, bins = 20 20 20
  1 neighbor lists, perpetual/occasional/extra = 1 0 0
  (1) pair lj/cut, perpetual
      attributes: half, newton on
      pair build: half/bin/atomonly/newton
      stencil: half/bin/3d
      bin: standard
Setting up Verlet run ...
  Unit style    : lj
  Current step  : 0
  Time step     : 0.01
Per MPI rank memory allocation (min/avg/max) = 3.063 | 3.064 | 3.064 Mbytes
   Step          Temp          E_pair         E_mol          TotEng         Press     
         0   3              0              0              4.4978027      2.9985352    
       500   3.089344       1.9911667      0              6.6229201      26.72848     
      1000   3.0881427      1.875371       0              6.5053232      26.013513    
      1500   3.0768176      1.8154222      0              6.4283951      25.50188     
      2000   3.0305725      1.8020966      0              6.3457357      24.933582    
      2500   2.9971542      1.8308722      0              6.3244083      25.641067    
      3000   3.075623       1.9206147      0              6.5317966      26.581608    
      3500   2.9841964      1.7853593      0              6.2594682      25.000297    
      4000   3.0434683      1.8228469      0              6.3858202      25.553888    
      4500   2.8796158      1.8142264      0              6.131541       25.056673    
      5000   3.0156763      1.7719693      0              6.293275       24.899593    
      5500   3.0047257      1.7785874      0              6.2834752      25.127938    
      6000   3.004744       1.8241106      0              6.3290257      25.373804    
      6500   2.9892735      1.7625463      0              6.2442672      24.695639    
      7000   3.0413241      1.8997863      0              6.4595449      26.191345    
      7500   2.9778426      1.6848596      0              6.1494425      24.385202    
      8000   3.0589606      1.7857082      0              6.3719086      25.260828    
      8500   3.1245808      1.7958996      0              6.4804822      25.176363    
      9000   2.969698       1.7045498      0              6.1569217      24.314325    
      9500   3.0189121      1.8086069      0              6.334764       25.462068    
     10000   2.9383448      1.7460096      0              6.1513748      24.561818    
     10500   2.9832671      1.7939565      0              6.2666721      25.064846    
     11000   3.0017899      1.8581859      0              6.3586723      25.65998     
     11500   2.9771293      1.764827       0              6.2283405      24.859819    
     12000   2.9807852      1.8386987      0              6.3076933      25.59596     
     12500   2.9756888      1.7353221      0              6.1966758      24.818819    
     13000   2.970049       1.855235       0              6.3081331      25.542688    
     13500   2.9959294      1.8191642      0              6.3108639      25.38957     
     14000   3.0425095      1.7438691      0              6.3054049      24.765286    
     14500   3.0281357      1.7289169      0              6.2689025      24.478748    
     15000   2.932846       1.8326972      0              6.2298182      25.374517    
     15500   2.9790125      1.8023399      0              6.2686768      25.225498    
     16000   2.9233979      1.9305922      0              6.3135478      25.996548    
     16500   3.0904869      1.881779       0              6.5152457      25.70534     
     17000   2.9437904      1.8009353      0              6.2144649      25.300205    
     17500   3.0464052      1.7670152      0              6.3343917      24.935183    
     18000   2.9632337      1.7243127      0              6.1669929      24.533163    
     18500   2.9555899      1.9143348      0              6.345555       26.283923    
     19000   2.9168442      1.8300057      0              6.2031356      25.450896    
     19500   2.9852207      1.7901609      0              6.2658056      25.013761    
     20000   3.0202722      1.7795904      0              6.3077865      25.05916     
     20500   2.9919764      1.7677935      0              6.2535667      24.66925     
     21000   2.9541271      1.8568613      0              6.2858883      25.453859    
     21500   3.0638538      1.742204       0              6.3357407      24.653094    
     22000   2.9007582      1.8169215      0              6.1659342      25.303918    
     22500   2.9287553      1.9107549      0              6.3017427      26.008667    
     23000   3.0534104      1.8438135      0              6.4216928      25.907267    
     23500   2.9533393      1.8524956      0              6.2803415      25.423489    
     24000   3.0203957      1.8413595      0              6.3697408      25.563642    
     24500   2.9750414      1.6979849      0              6.158368       24.109334    
     25000   3.0100343      1.7305486      0              6.2433954      24.641392    
     25500   3.0025509      1.7675481      0              6.2691752      24.931126    
     26000   3.1033222      1.7462062      0              6.3989165      24.694097    
     26500   2.9691263      1.8514519      0              6.3029667      25.48711     
     27000   3.0595415      1.8738155      0              6.4608869      26.019856    
     27500   3.0472863      1.5839946      0              6.1526922      23.420619    
     28000   2.990574       1.8540311      0              6.3377017      25.702093    
     28500   2.9411545      1.7221573      0              6.131735       24.552765    
     29000   3.0217627      1.7700556      0              6.3004865      24.899659    
     29500   3.0260224      1.8722289      0              6.4090461      25.759027    
     30000   2.9914333      1.7907099      0              6.2756689      25.340544    
     30500   3.089991       1.8235434      0              6.4562668      25.538089    
     31000   2.9292232      1.7621801      0              6.1538695      24.664947    
     31500   3.0087639      1.7803676      0              6.2913098      25.041188    
     32000   2.9074143      1.8283356      0              6.1873276      25.500019    
     32500   3.0489174      1.7261781      0              6.2973211      24.623382    
     33000   3.0042335      1.8310204      0              6.3351703      25.447773    
     33500   2.9634869      1.8968986      0              6.3399584      25.992531    
     34000   2.9711188      1.9057837      0              6.3602857      26.168155    
     34500   2.8803189      1.7277718      0              6.0461406      24.544791    
     35000   2.9983847      1.7729         0              6.268281       25.021331    
     35500   2.953352       1.7879812      0              6.2158462      25.003211    
     36000   3.0104222      1.7843471      0              6.2977754      25.1457      
     36500   2.9937508      1.7861706      0              6.2746042      25.085008    
     37000   2.9581814      1.8175687      0              6.2526742      25.562184    
     37500   3.0510907      1.8457077      0              6.4201091      25.606505    
     38000   2.9600782      1.8003113      0              6.2382605      25.324805    
     38500   3.0135754      1.7434311      0              6.261587       24.698696    
     39000   2.9686574      1.7888495      0              6.2396613      25.139644    
     39500   2.9714761      1.7916715      0              6.2467093      24.965756    
     40000   3.012325       1.7732103      0              6.2894916      25.022648    
     40500   3.0945848      1.8071779      0              6.4467887      25.295719    
     41000   2.9840063      1.7580365      0              6.2318604      25.248182    
     41500   2.991445       1.8031874      0              6.2881638      25.078513    
     42000   2.9464078      1.8312987      0              6.2487525      25.494845    
     42500   2.9771184      1.7838849      0              6.247382       25.153928    
     43000   2.9512469      1.8429829      0              6.2676916      25.563319    
     43500   3.0229952      1.8261201      0              6.3583988      25.42277     
     44000   2.9256433      1.7856444      0              6.1719665      25.033994    
     44500   3.0032198      1.8300096      0              6.3326397      25.70302     
     45000   3.0134643      1.783068       0              6.3010574      25.395324    
     45500   2.97607        1.8341164      0              6.2960417      25.604933    
     46000   3.084004       1.8221398      0              6.4458871      25.480855    
     46500   2.8429261      1.8296443      0              6.0919513      25.524668    
     47000   3.0031429      1.7772284      0              6.2797432      25.120818    
     47500   2.997493       1.8034577      0              6.2975018      25.330948    
     48000   3.0001483      1.7494157      0              6.2474408      24.783232    
     48500   2.9275008      1.8894076      0              6.2785147      25.783267    
     49000   3.0751395      1.7662333      0              6.3766903      24.872262    
     49500   2.9460973      1.6884557      0              6.1054439      24.110915    
     50000   2.9395173      1.8602162      0              6.2673391      25.574671    
Loop time of 2.87565 on 64 procs for 50000 steps with 2048 atoms

Performance: 15022666.636 tau/day, 17387.346 timesteps/s, 35.609 Matom-step/s
99.5% CPU use with 64 MPI tasks x 1 OpenMP threads

MPI task timing breakdown:
Section |  min time  |  avg time  |  max time  |%varavg| %total
---------------------------------------------------------------
Pair    | 0.075565   | 0.083126   | 0.092635   |   1.3 |  2.89
Neigh   | 0.33169    | 0.33754    | 0.3514     |   0.6 | 11.74
Comm    | 1.4055     | 1.5716     | 1.7576     |   8.4 | 54.65
Output  | 0.0036436  | 0.0037707  | 0.0059814  |   0.5 |  0.13
Modify  | 0.23872    | 0.52335    | 0.68843    |  16.7 | 18.20
Other   |            | 0.3562     |            |       | 12.39

Nlocal:             32 ave          36 max          28 min
Histogram: 3 7 8 10 0 11 5 10 6 4
Nghost:        160.062 ave         171 max         147 min
Histogram: 2 2 4 9 10 11 11 7 2 6
Neighs:        153.953 ave         192 max         124 min
Histogram: 5 4 10 10 8 12 5 6 3 1

Total # of neighbors = 9853
Ave neighs/atom = 4.8110352
Neighbor list builds = 20095
Dangerous builds = 0
Generated 0 of 0 mixed pair_coeff terms from geometric mixing rule
Setting up Verlet run ...
  Unit style    : lj
  Current step  : 50000
  Time step     : 0.01
Per MPI rank memory allocation (min/avg/max) = 3.105 | 3.106 | 3.106 Mbytes
   Step          Temp          E_pair         E_mol          TotEng         Press     
     50000   2.9395173      1.8602162      0              6.2673391      25.574671    
     50500   3.0306449      1.8046826      0              6.3484302      24.982304    
     51000   2.9346821      1.8187003      0              6.2185741      25.47745     
     51500   2.9135742      1.7776657      0              6.145893       24.801055    
     52000   2.9248083      1.7092096      0              6.0942798      24.386246    
     52500   2.9064542      1.7312324      0              6.088785       24.443402    
     53000   2.8889134      1.7214671      0              6.0527213      24.374583    
     53500   2.9768114      1.6802135      0              6.1432503      23.871422    
     54000   2.9661528      1.7679191      0              6.2149759      24.950714    
     54500   2.9185411      1.6998988      0              6.0755728      24.423043    
     55000   2.9307471      1.8130274      0              6.2070016      25.338383    
     55500   2.8679248      1.661363       0              5.9611496      23.841409    
     56000   2.8804788      1.7395417      0              6.0581502      24.599306    
     56500   2.8761484      1.6572408      0              5.9693569      23.985586    
     57000   2.8847997      1.7928382      0              6.1179248      24.904294    
     57500   2.7911092      1.5802387      0              5.7648582      23.198862    
     58000   2.7419053      1.6842003      0              5.79505        23.949028    
     58500   2.8063908      1.5944192      0              5.8019499      23.20998     
     59000   2.7833495      1.6756747      0              5.8486603      23.80964     
     59500   2.7664389      1.6075164      0              5.7551486      23.296841    
     60000   2.7494124      1.627127       0              5.749232       23.297613    
     60500   2.6655274      1.6054698      0              5.6018086      23.137857    
     61000   2.6290976      1.616099       0              5.5578197      23.171707    
     61500   2.6720675      1.562565       0              5.5687092      22.570823    
     62000   2.626781       1.5645238      0              5.5027714      22.889281    
     62500   2.6311402      1.5047278      0              5.449511       22.300614    
     63000   2.6019853      1.5144089      0              5.4154811      22.309869    
     63500   2.5704603      1.5365582      0              5.390366       22.314216    
     64000   2.5602082      1.5510218      0              5.389459       22.605978    
     64500   2.5686276      1.4523567      0              5.3034167      21.485448    
     65000   2.545458       1.5277188      0              5.3440415      22.420821    
     65500   2.5605034      1.6045059      0              5.4433856      23.234441    
     66000   2.4922026      1.5042152      0              5.2406938      22.039602    
     66500   2.5445941      1.4865439      0              5.3015713      22.000377    
     67000   2.5175595      1.4227808      0              5.1972762      21.267052    
     67500   2.438838       1.4937579      0              5.1502286      21.928183    
     68000   2.45654        1.4027023      0              5.0857131      21.0739      
     68500   2.4564927      1.5020722      0              5.1850121      21.965774    
     69000   2.4993808      1.467442       0              5.2146825      21.735497    
     69500   2.478141       1.4155094      0              5.1309058      21.137881    
     70000   2.4736003      1.3852508      0              5.0938396      20.916829    
     70500   2.3773424      1.4301161      0              4.9943886      21.425399    
     71000   2.3736943      1.3988001      0              4.957603       21.0734      
     71500   2.3828891      1.3599412      0              4.9325295      20.470675    
     72000   2.3702507      1.3845389      0              4.9381789      20.861312    
     72500   2.373061       1.396291       0              4.9541444      20.768791    
     73000   2.3516583      1.394747       0              4.9205121      21.0277      
     73500   2.3322553      1.4106696      0              4.9073444      20.885335    
     74000   2.3369252      1.4125626      0              4.9162388      21.16757     
     74500   2.2495964      1.3692612      0              4.7420082      20.548332    
     75000   2.2689689      1.2764723      0              4.6782639      19.655209    
     75500   2.1947836      1.364129       0              4.6546968      20.359818    
     76000   2.2377789      1.2800194      0              4.6350488      19.724621    
     76500   2.1752744      1.3234664      0              4.5847847      20.132429    
     77000   2.1618132      1.3085572      0              4.5496937      20.02134     
     77500   2.1963246      1.1997785      0              4.4926568      19.025289    
     78000   2.1554693      1.2314662      0              4.4630915      19.359594    
     78500   2.1387946      1.2580647      0              4.4646901      19.3872      
     79000   2.133629       1.2586832      0              4.457564       19.479193    
     79500   2.1254486      1.2481267      0              4.4347429      19.392817    
     80000   2.0656629      1.2264171      0              4.3233985      18.932851    
     80500   2.0979155      1.2407124      0              4.3860491      19.203738    
     81000   2.1210805      1.1980531      0              4.3781203      18.855947    
     81500   2.1285929      1.2372555      0              4.4285859      19.111946    
     82000   2.0406536      1.1790417      0              4.2385276      18.51995     
     82500   2.0290346      1.1829534      0              4.2250193      18.46836     
     83000   2.0305984      1.1222554      0              4.1666657      17.830425    
     83500   2.0551209      1.1042812      0              4.1854573      17.714925    
     84000   2.0535486      1.0988469      0              4.1776658      17.744639    
     84500   2.0015987      1.1274296      0              4.1283616      18.007721    
     85000   1.9981698      1.1681318      0              4.163923       18.46611     
     85500   1.9980204      1.0820751      0              4.0776423      17.507558    
     86000   1.8949688      1.1267195      0              3.9677847      17.883621    
     86500   1.8947658      1.087113       0              3.927874       17.483036    
     87000   1.8859271      1.0426094      0              3.8701189      17.060592    
     87500   1.8778464      1.143093       0              3.9584872      18.068706    
     88000   1.8690791      1.0793323      0              3.881582       17.311949    
     88500   1.884158       1.0531361      0              3.8779932      17.147996    
     89000   1.8493221      1.0808851      0              3.8535137      17.480113    
     89500   1.8716273      1.0757416      0              3.8818117      17.153269    
     90000   1.8494445      1.0559233      0              3.8287355      17.068531    
     90500   1.7969669      1.0733314      0              3.7674655      17.283825    
     91000   1.8135192      1.0218051      0              3.7407556      16.825252    
     91500   1.7769107      1.0197339      0              3.6837985      16.76344     
     92000   1.7871098      1.0100185      0              3.6893743      16.588312    
     92500   1.8062317      0.96279869     0              3.6708233      16.089189    
     93000   1.7507216      0.9772855      0              3.6020856      16.149544    
     93500   1.7145971      1.0329973      0              3.6036372      16.959102    
     94000   1.7408275      0.99453201     0              3.6044982      16.468016    
     94500   1.7243198      0.93829677     0              3.5235136      15.918553    
     95000   1.7207594      0.99111072     0              3.5709895      16.279583    
     95500   1.6363094      0.95547207     0              3.4087377      16.032573    
     96000   1.6604821      0.93513116     0              3.4246381      15.863224    
     96500   1.6371137      0.97394952     0              3.428421       16.150219    
     97000   1.6439648      0.94174259     0              3.4064858      15.885162    
     97500   1.6457605      0.90642301     0              3.3738583      15.623332    
     98000   1.6347787      0.88243517     0              3.3334059      15.164022    
[...]
99.5% CPU use with 64 MPI tasks x 1 OpenMP threads

MPI task timing breakdown:
Section |  min time  |  avg time  |  max time  |%varavg| %total
---------------------------------------------------------------
Pair    | 0.075488   | 0.083197   | 0.091374   |   1.4 |  2.91
Neigh   | 0.33198    | 0.33706    | 0.34628    |   0.5 | 11.79
Comm    | 1.4329     | 1.5775     | 1.764      |   7.9 | 55.18
Output  | 0.0039089  | 0.0040337  | 0.0060757  |   0.4 |  0.14
Modify  | 0.22654    | 0.50706    | 0.66971    |  16.3 | 17.74
Other   |            | 0.3498     |            |       | 12.24

Nlocal:             32 ave          36 max          28 min
Histogram: 3 7 8 10 0 11 5 10 6 4
Nghost:        160.062 ave         171 max         147 min
Histogram: 2 2 4 9 10 11 11 7 2 6
Neighs:        153.953 ave         192 max         124 min
Histogram: 5 4 10 10 8 12 5 6 3 1

Total # of neighbors = 9853
Ave neighs/atom = 4.8110352
Neighbor list builds = 20095
Dangerous builds = 0
Generated 0 of 0 mixed pair_coeff terms from geometric mixing rule
Setting up Verlet run ...
  Unit style    : lj
  Current step  : 50000
  Time step     : 0.01
Per MPI rank memory allocation (min/avg/max) = 3.105 | 3.106 | 3.106 Mbytes
   Step          Temp          E_pair         E_mol          TotEng         Press     
     50000   2.9395173      1.8602162      0              6.2673391      25.574671    
     50500   3.0306449      1.8046826      0              6.3484302      24.982304    
     51000   2.9346821      1.8187003      0              6.2185741      25.47745     
     51500   2.9135742      1.7776657      0              6.145893       24.801055    
     52000   2.9248083      1.7092096      0              6.0942798      24.386246    
     52500   2.9064542      1.7312324      0              6.088785       24.443402    
     53000   2.8889134      1.7214671      0              6.0527213      24.374583    
     53500   2.9768114      1.6802135      0              6.1432503      23.871422    
     54000   2.9661528      1.7679191      0              6.2149759      24.950714    
     54500   2.9185411      1.6998988      0              6.0755728      24.423043    
     55000   2.9307471      1.8130274      0              6.2070016      25.338383    
     55500   2.8679248      1.661363       0              5.9611496      23.841409    
     56000   2.8804788      1.7395417      0              6.0581502      24.599306    
     56500   2.8761484      1.6572408      0              5.9693569      23.985586    
     57000   2.8847997      1.7928382      0              6.1179248      24.904294    
     57500   2.7911092      1.5802387      0              5.7648582      23.198862    
     58000   2.7419053      1.6842003      0              5.79505        23.949028    
     58500   2.8063908      1.5944192      0              5.8019499      23.20998     
     59000   2.7833495      1.6756747      0              5.8486603      23.80964     
     59500   2.7664389      1.6075164      0              5.7551486      23.296841    
     60000   2.7494124      1.627127       0              5.749232       23.297613    
     60500   2.6655274      1.6054698      0              5.6018086      23.137857    
     61000   2.6290976      1.616099       0              5.5578197      23.171707    
     61500   2.6720675      1.562565       0              5.5687092      22.570823    
     62000   2.626781       1.5645238      0              5.5027714      22.889281    
     62500   2.6311402      1.5047278      0              5.449511       22.300614    
     63000   2.6019853      1.5144089      0              5.4154811      22.309869    
     63500   2.5704603      1.5365582      0              5.390366       22.314216    
     64000   2.5602082      1.5510218      0              5.389459       22.605978    
     64500   2.5686276      1.4523567      0              5.3034167      21.485448    
     65000   2.545458       1.5277188      0              5.3440415      22.420821    
     65500   2.5605034      1.6045059      0              5.4433856      23.234441    
     66000   2.4922026      1.5042152      0              5.2406938      22.039602    
     66500   2.5445941      1.4865439      0              5.3015713      22.000377    
     67000   2.5175595      1.4227808      0              5.1972762      21.267052    
     67500   2.438838       1.4937579      0              5.1502286      21.928183    
     68000   2.45654        1.4027023      0              5.0857131      21.0739      
     68500   2.4564927      1.5020722      0              5.1850121      21.965774    
     69000   2.4993808      1.467442       0              5.2146825      21.735497    
     69500   2.478141       1.4155094      0              5.1309058      21.137881    
     70000   2.4736003      1.3852508      0              5.0938396      20.916829    
     70500   2.3773424      1.4301161      0              4.9943886      21.425399    
     71000   2.3736943      1.3988001      0              4.957603       21.0734      
     71500   2.3828891      1.3599412      0              4.9325295      20.470675    
     72000   2.3702507      1.3845389      0              4.9381789      20.861312    
     72500   2.373061       1.396291       0              4.9541444      20.768791    
     73000   2.3516583      1.394747       0              4.9205121      21.0277      
     73500   2.3322553      1.4106696      0              4.9073444      20.885335    
     74000   2.3369252      1.4125626      0              4.9162388      21.16757     
     74500   2.2495964      1.3692612      0              4.7420082      20.548332    
     75000   2.2689689      1.2764723      0              4.6782639      19.655209    
     75500   2.1947836      1.364129       0              4.6546968      20.359818    
     76000   2.2377789      1.2800194      0              4.6350488      19.724621    
     76500   2.1752744      1.3234664      0              4.5847847      20.132429    
     77000   2.1618132      1.3085572      0              4.5496937      20.02134     
     77500   2.1963246      1.1997785      0              4.4926568      19.025289    
     78000   2.1554693      1.2314662      0              4.4630915      19.359594    
     78500   2.1387946      1.2580647      0              4.4646901      19.3872      
     79000   2.133629       1.2586832      0              4.457564       19.479193    
     79500   2.1254486      1.2481267      0              4.4347429      19.392817    
     80000   2.0656629      1.2264171      0              4.3233985      18.932851    
     80500   2.0979155      1.2407124      0              4.3860491      19.203738    
     81000   2.1210805      1.1980531      0              4.3781203      18.855947    
     81500   2.1285929      1.2372555      0              4.4285859      19.111946    
     82000   2.0406536      1.1790417      0              4.2385276      18.51995     
     82500   2.0290346      1.1829534      0              4.2250193      18.46836     
     83000   2.0305984      1.1222554      0              4.1666657      17.830425    
     83500   2.0551209      1.1042812      0              4.1854573      17.714925    
     84000   2.0535486      1.0988469      0              4.1776658      17.744639    
     84500   2.0015987      1.1274296      0              4.1283616      18.007721    
     85000   1.9981698      1.1681318      0              4.163923       18.46611     
     85500   1.9980204      1.0820751      0              4.0776423      17.507558    
     86000   1.8949688      1.1267195      0              3.9677847      17.883621    
     86500   1.8947658      1.087113       0              3.927874       17.483036    
     87000   1.8859271      1.0426094      0              3.8701189      17.060592    
     87500   1.8778464      1.143093       0              3.9584872      18.068706    
     88000   1.8690791      1.0793323      0              3.881582       17.311949    
     88500   1.884158       1.0531361      0              3.8779932      17.147996    
     89000   1.8493221      1.0808851      0              3.8535137      17.480113    
     89500   1.8716273      1.0757416      0              3.8818117      17.153269    
     90000   1.8494445      1.0559233      0              3.8287355      17.068531    
     90500   1.7969669      1.0733314      0              3.7674655      17.283825    
     91000   1.8135192      1.0218051      0              3.7407556      16.825252    
     91500   1.7769107      1.0197339      0              3.6837985      16.76344     
     92000   1.7871098      1.0100185      0              3.6893743      16.588312    
     92500   1.8062317      0.96279869     0              3.6708233      16.089189    
     93000   1.7507216      0.9772855      0              3.6020856      16.149544    
     93500   1.7145971      1.0329973      0              3.6036372      16.959102    
     94000   1.7408275      0.99453201     0              3.6044982      16.468016    
     94500   1.7243198      0.93829677     0              3.5235136      15.918553    
     95000   1.7207594      0.99111072     0              3.5709895      16.279583    
     95500   1.6363094      0.95547207     0              3.4087377      16.032573    
     96000   1.6604821      0.93513116     0              3.4246381      15.863224    
     96500   1.6371137      0.97394952     0              3.428421       16.150219    
     97000   1.6439648      0.94174259     0              3.4064858      15.885162    
     97500   1.6457605      0.90642301     0              3.3738583      15.623332    
     98000   1.6347787      0.88243517     0              3.3334059      15.164022    
     98500   1.6236231      0.94419572     0              3.3784412      15.864298    
     99000   1.5949107      0.89404401     0              3.285242       15.256836    
     99500   1.5546182      0.90228197     0              3.2330706      15.362115    
    100000   1.5495037      0.85449631     0              3.177617       14.765514    
    100500   1.5365186      0.84628411     0              3.1499367      14.563357    
    101000   1.52939        0.82537906     0              3.1183438      14.33314     
    101500   1.4845204      0.86733597     0              3.0930293      14.961027    
    102000   1.5045017      0.775426       0              3.0310766      13.76402     
    102500   1.4542172      0.82204765     0              3.0023084      14.409185    
    103000   1.4344403      0.80496114     0              2.9555709      14.25149     
    103500   1.4408803      0.77005278     0              2.9303179      13.870694    
    104000   1.427036       0.73309053     0              2.8725994      13.450608    
    104500   1.4221825      0.73685132     0              2.8690834      13.298862    
    105000   1.3840526      0.75340874     0              2.8284739      13.598391    
    105500   1.386278       0.71038445     0              2.7887861      13.011814    
    106000   1.3545434      0.75209365     0              2.7829166      13.569051    
    106500   1.3506649      0.74044323     0              2.7654513      13.404531    
    107000   1.3694532      0.70099745     0              2.7541742      12.929435    
    107500   1.3654743      0.7387575      0              2.7859688      13.44193     
    108000   1.3006245      0.74271895     0              2.6927032      13.281567    
    108500   1.3008087      0.73255937     0              2.6828196      13.237934    
    109000   1.2540138      0.68643298     0              2.5665353      12.749046    
    109500   1.2500133      0.71124321     0              2.5853476      12.92502     
    110000   1.2604368      0.68099141     0              2.5707234      12.410524    
    110500   1.2507232      0.63854034     0              2.5137091      12.04928     
    111000   1.2439401      0.63033983     0              2.4953388      11.97261     
    111500   1.2354436      0.62342865     0              2.4756892      11.926832    
    112000   1.2029188      0.65804273     0              2.4615399      12.272196    
    112500   1.2152958      0.60139352     0              2.4234472      11.67042     
    113000   1.191753       0.63927732     0              2.426034       11.971631    
    113500   1.184437       0.64125329     0              2.4170412      11.963818    
    114000   1.1575436      0.62884772     0              2.3643153      11.793994    
    114500   1.1353221      0.59229482     0              2.2944464      11.321299    
    115000   1.0886322      0.58270822     0              2.2148592      11.18623     
    115500   1.0828678      0.54189333     0              2.1654019      10.882955    
    116000   1.0660541      0.54669553     0              2.1449959      10.826053    
    116500   1.061052       0.56147223     0              2.1522732      11.047258    
    117000   1.0525132      0.54772214     0              2.1257211      10.718357    
    117500   1.0539811      0.53041076     0              2.1106104      10.478968    
    118000   1.0383431      0.53236374     0              2.0891179      10.638085    
    118500   1.0069297      0.52148669     0              2.0311437      10.389289    
    119000   0.99137591     0.5054564      0              1.9917942      10.124072    
    119500   0.99148655     0.47343306     0              1.9599367      9.8180581    
    120000   0.97844833     0.47347878     0              1.9404346      9.7946502    
    120500   0.93607405     0.47495994     0              1.8783854      9.7929661    
    121000   0.94131409     0.45893122     0              1.8702129      9.6366576    
    121500   0.91092591     0.46111836     0              1.82684        9.5498866    
    122000   0.91804824     0.44879246     0              1.8251924      9.3295851    
    122500   0.90730347     0.43767339     0              1.7979641      9.2958238    
    123000   0.92480175     0.45460687     0              1.8411322      9.5316263    
    123500   0.8971974      0.39342198     0              1.738561       8.6678886    
    124000   0.84977957     0.43630418     0              1.7103511      9.2068666    
    124500   0.83767552     0.42396673     0              1.6798665      9.0177584    
    125000   0.82286938     0.40638311     0              1.6400845      8.9044796    
    125500   0.81504755     0.40125817     0              1.6232325      8.6893042    
    126000   0.79418583     0.39595588     0              1.5866529      8.5092244    
    126500   0.81338874     0.37830026     0              1.5977876      8.4117616    
    127000   0.77093698     0.34404218     0              1.499883       7.8664351    
    127500   0.75146478     0.37078643     0              1.4974332      8.1769363    
    128000   0.77464266     0.35623854     0              1.5176352      8.0755391    
    128500   0.72491655     0.33442296     0              1.4212668      7.636193     
    129000   0.71354204     0.34297262     0              1.4127631      7.7998082    
    129500   0.68366256     0.31362863     0              1.3386217      7.3118535    
    130000   0.68607617     0.30737615     0              1.3359879      7.2446926    
    130500   0.66542015     0.2997529      0              1.2973958      7.1860209    
    131000   0.64639229     0.2990123      0              1.2681273      6.9844105    
    131500   0.62498841     0.30233914     0              1.239364       7.1409301    
    132000   0.62016103     0.27499006     0              1.2047774      6.6731477    
    132500   0.61531737     0.25876242     0              1.1812878      6.4902917    
    133000   0.58732452     0.26637337     0              1.14693        6.4942969    
    133500   0.57026992     0.27256388     0              1.1275511      6.5586273    
    134000   0.57318664     0.25356004     0              1.1129202      6.4123522    
    134500   0.55507211     0.25111331     0              1.0833149      6.3071734    
    135000   0.52744602     0.22622258     0              1.0170053      5.8625764    
    135500   0.5138174      0.22818234     0              0.99853211     5.8191757    
    136000   0.50508716     0.21128433     0              0.96854514     5.5946709    
    136500   0.48019356     0.21121167     0              0.9311503      5.4995633    
    137000   0.47123248     0.20305355     0              0.90955713     5.3813884    
    137500   0.45701847     0.18704696     0              0.87223993     5.1569137    
    138000   0.45066725     0.18624344     0              0.86191424     5.1849381    
    138500   0.43237624     0.17790231     0              0.82614998     4.9590049    
    139000   0.42022923     0.1662021      0              0.79623816     4.7556246    
    139500   0.41086958     0.16759569     0              0.78359912     4.7540752    
    140000   0.39593927     0.15771002     0              0.75132894     4.5682147    
    140500   0.37424136     0.15524676     0              0.71633471     4.5689844    
    141000   0.35473121     0.13766309     0              0.66950009     4.2144943    
    141500   0.34366636     0.13765085     0              0.65289868     4.1606447    
    142000   0.32661753     0.12599732     0              0.6156844      3.9136062    
    142500   0.31289123     0.12242716     0              0.59153484     3.8442539    
    143000   0.30494457     0.11340601     0              0.57059951     3.6648317    
    143500   0.28330113     0.10859212     0              0.53333632     3.5815959    
    144000   0.27259544     0.098859324    0              0.50755283     3.3261091    
    144500   0.2588999      0.092811615    0              0.48097185     3.2189956    
    145000   0.24963242     0.094326582    0              0.46859238     3.1858198    
    145500   0.23025948     0.076995392    0              0.42221597     2.8321111    
    146000   0.21926469     0.078585364    0              0.4073218      2.8466579    
    146500   0.20278085     0.063298418    0              0.36732118     2.4552894    
    147000   0.19077582     0.060515714    0              0.34653972     2.3909474    
    147500   0.17247526     0.053403415    0              0.31198998     2.2216321    
    148000   0.16026499     0.046804167    0              0.28708427     2.0454318    
    148500   0.14500043     0.042307817    0              0.25970226     1.8899119    
    149000   0.13297608     0.033772117    0              0.23313884     1.6256892    
    149500   0.11570862     0.031442689    0              0.20492088     1.5325877    
    150000   0.099369911    0.029912702    0              0.17889479     1.4260799    
Loop time of 5.21203 on 64 procs for 100000 steps with 2048 atoms

Performance: 16577036.066 tau/day, 19186.384 timesteps/s, 39.294 Matom-step/s
99.6% CPU use with 64 MPI tasks x 1 OpenMP threads

MPI task timing breakdown:
Section |  min time  |  avg time  |  max time  |%varavg| %total
---------------------------------------------------------------
Pair    | 0.13706    | 0.1515     | 0.16787    |   2.0 |  2.91
Neigh   | 0.46809    | 0.47453    | 0.48732    |   0.5 |  9.10
Comm    | 2.5009     | 2.8068     | 3.1794     |  12.2 | 53.85
Output  | 0.1254     | 0.12553    | 0.12727    |   0.1 |  2.41
Modify  | 0.42754    | 0.98962    | 1.3324     |  24.0 | 18.99
Other   |            | 0.6641     |            |       | 12.74

Nlocal:             32 ave          35 max          28 min
Histogram: 1 3 8 0 15 11 0 14 6 6
Nghost:        159.953 ave         171 max         149 min
Histogram: 2 5 4 11 6 15 14 4 0 3
Neighs:        164.453 ave         186 max         133 min
Histogram: 1 2 2 5 7 14 15 9 5 4

Total # of neighbors = 10525
Ave neighs/atom = 5.1391602
Neighbor list builds = 28208
Dangerous builds = 0
Total wall time: 0:00:08
