LAMMPS (15 Sep 2022)
OMP_NUM_THREADS environment is not set. Defaulting to 1 thread. (src/comm.cpp:98)
  using 1 OpenMP thread(s) per MPI task
Lattice spacing in x,y,z = 1.118034 1.118034 1.118034
Created orthogonal box = (0 0 -0.55901699) to (22.36068 22.36068 0.55901699)
  8 by 8 by 1 MPI processor grid
Created 400 atoms
  using lattice units in orthogonal box = (0 0 -0.55901699) to (22.36068 22.36068 0.55901699)
  create_atoms CPU = 0.002 seconds
Generated 0 of 0 mixed pair_coeff terms from geometric mixing rule
Neighbor list info ...
  update: every = 1 steps, delay = 0 steps, check = yes
  max neighbors/atom: 2000, page size: 100000
  master list distance cutoff = 1.3
  ghost atom cutoff = 1.3
  binsize = 0.65, bins = 35 35 2
  1 neighbor lists, perpetual/occasional/extra = 1 0 0
  (1) pair lj/cut, perpetual
      attributes: half, newton on
      pair build: half/bin/atomonly/newton
      stencil: half/bin/2d
      bin: standard
Setting up Verlet run ...
  Unit style    : lj
  Current step  : 0
  Time step     : 0.01
Per MPI rank memory allocation (min/avg/max) = 3.047 | 3.047 | 3.047 Mbytes
   Step          Temp          E_pair         E_mol          TotEng         Press     
         0   3              0              0              2.9925         2.394        
       500   2.8737048      0.66219554     0              3.5287161      12.318756    
      1000   3.0130897      0.6413596      0              3.6469166      12.375006    
      1500   3.0536362      0.70509261     0              3.7510947      12.959455    
      2000   2.8223099      0.53412907     0              3.3493832      10.684718    
      2500   2.9281018      0.55075458     0              3.4715362      11.113346    
      3000   2.8004345      0.72783061     0              3.521264       12.794673    
      3500   3.0780321      0.55140447     0              3.6217415      11.241442    
      4000   2.943282       0.61104445     0              3.5469683      11.828048    
      4500   2.7844763      0.59089264     0              3.3684078      12.00323     
      5000   2.6313869      0.68541781     0              3.3102263      12.084394    
      5500   2.8162866      0.68926445     0              3.4985104      12.212061    
      6000   2.9606478      0.67340136     0              3.6266475      13.032632    
      6500   2.9338506      0.65011965     0              3.5766356      12.117604    
      7000   2.7702678      0.61149808     0              3.3748402      11.486175    
      7500   2.956453       0.60467395     0              3.5537358      12.04021     
      8000   2.8692849      0.60367238     0              3.4657841      11.799971    
      8500   2.9392319      0.64697139     0              3.5788552      11.645734    
      9000   2.9265123      0.61308455     0              3.5322806      11.847347    
      9500   2.8848014      0.59867715     0              3.4762665      11.782755    
     10000   2.7866348      0.61805436     0              3.3977226      12.003661    
     10500   2.7541318      0.6909364      0              3.4381829      12.384456    
     11000   2.767409       0.56671336     0              3.3272039      11.277947    
     11500   2.8561718      0.63362306     0              3.4826544      12.222711    
     12000   2.8781555      0.65266006     0              3.5236201      12.100418    
     12500   3.048158       0.60894479     0              3.6494824      11.558322    
     13000   2.857866       0.58755891     0              3.4382803      11.221786    
     13500   2.9281359      0.67561313     0              3.5964287      12.05438     
     14000   2.94652        0.61696718     0              3.5561209      11.575147    
     14500   2.9284703      0.72001233     0              3.6411615      13.007656    
     15000   2.9965556      0.59093283     0              3.579997       11.63695     
     15500   2.9894483      0.57849674     0              3.5604714      11.437794    
     16000   3.1050727      0.60745429     0              3.7047643      11.79758     
     16500   2.968194       0.7519401      0              3.7127136      13.559015    
     17000   3.141915       0.5522668      0              3.6863271      11.039748    
     17500   2.972238       0.77048891     0              3.7352963      13.667534    
     18000   3.3519622      0.67939417     0              4.0229764      12.53475     
     18500   3.0437998      0.70420444     0              3.7403947      12.55591     
     19000   3.1553909      0.52898984     0              3.6764922      11.055281    
     19500   3.0154251      0.69408766     0              3.7019742      12.591243    
     20000   2.9287472      0.81314445     0              3.7345698      13.921536    
     20500   2.9565661      0.7229617      0              3.6721364      12.578903    
     21000   3.0179349      0.71110974     0              3.7214998      13.126211    
     21500   3.1124901      0.69131596     0              3.7960248      12.751918    
     22000   3.0352927      0.80512586     0              3.8328303      13.68552     
     22500   2.9296914      0.60036413     0              3.5227313      11.651807    
     23000   2.7702077      0.615216       0              3.3784981      11.860611    
     23500   2.7873347      0.6160063      0              3.3963726      11.491414    
     24000   3.0469234      0.55337022     0              3.5926763      11.130974    
     24500   3.0394246      0.59610836     0              3.6279344      11.908638    
     25000   3.0749513      0.64134448     0              3.7086084      12.185138    
     25500   3.0750194      0.68961417     0              3.756946       13.062976    
     26000   2.9465081      0.75342067     0              3.6925625      13.388326    
     26500   3.0037595      0.7184778      0              3.7147279      13.077315    
     27000   3.0892082      0.65985519     0              3.7413403      12.629602    
     27500   3.1087636      0.67678438     0              3.7777761      12.650831    
     28000   2.8692403      0.60129288     0              3.4633601      11.696777    
     28500   2.7887813      0.83005205     0              3.6118614      14.285778    
     29000   2.8479749      0.6667802      0              3.5076352      12.402068    
     29500   3.007143       0.49262261     0              3.4922477      10.996034    
     30000   2.873705       0.65799283     0              3.5245135      12.249748    
     30500   2.8502016      0.72909904     0              3.5721752      13.126195    
     31000   2.9739896      0.60461798     0              3.5711726      11.746905    
     31500   2.8831451      0.5516656      0              3.4276029      11.265924    
     32000   2.8727912      0.69842069     0              3.5640299      12.577818    
     32500   2.9595626      0.64322245     0              3.5953861      11.931213    
     33000   2.9406481      0.77971437     0              3.7130108      13.358381    
     33500   2.9608296      0.73096274     0              3.6843903      12.96611     
     34000   2.9643641      0.6367815      0              3.5937347      11.953622    
     34500   3.0689926      0.68662754     0              3.7479476      13.377435    
     35000   2.9850569      0.66143979     0              3.639034       12.256504    
     35500   3.1425171      0.58346104     0              3.7181218      11.939685    
     36000   2.8654821      0.71760366     0              3.5759221      13.017845    
     36500   3.0268263      0.57989778     0              3.599157       11.990004    
     37000   2.9480787      0.74505281     0              3.6857613      13.208607    
     37500   2.7521094      0.65891089     0              3.40414        12.072623    
     38000   2.9803714      0.64475699     0              3.6176774      12.419553    
     38500   3.1157537      0.58777792     0              3.6957422      11.57665     
     39000   3.0066768      0.69200675     0              3.6911669      12.815404    
     39500   3.0832304      0.68778336     0              3.7633057      12.731417    
     40000   3.110124       0.68620533     0              3.788554       13.067063    
     40500   3.0618702      0.69067379     0              3.7448893      12.776768    
     41000   3.0602624      0.73406202     0              3.7866737      13.101973    
     41500   3.0767106      0.73001729     0              3.7990361      13.257896    
     42000   3.063428       0.61096547     0              3.6667349      11.985134    
     42500   3.1913781      0.69537259     0              3.8787722      12.789502    
     43000   3.1765159      0.61646322     0              3.7850379      11.77578     
     43500   3.0623942      0.71448012     0              3.7692183      12.686729    
     44000   2.9732257      0.79136599     0              3.7571587      13.834193    
     44500   3.3773873      0.58108464     0              3.9500285      11.649854    
     45000   3.2107951      0.78572881     0              3.9884969      14.319905    
     45500   2.9477383      0.66024275     0              3.6006117      12.711952    
     46000   2.9153634      0.78312442     0              3.6911994      13.442706    
     46500   3.0629681      0.59885688     0              3.6541676      11.894139    
     47000   3.2671819      0.70714363     0              3.9661576      13.208791    
     47500   3.3346843      0.73741512     0              4.0637627      13.549556    
     48000   3.2147175      0.67520924     0              3.8818899      12.589091    
     48500   3.0163814      0.72894726     0              3.7377877      13.104175    
     49000   3.0067513      0.71170774     0              3.7109422      13.047271    
     49500   3.0828889      0.60167456     0              3.6768563      11.855662    
     50000   3.0443095      0.69215074     0              3.7288495      12.98635     
Loop time of 1.6179 on 64 procs for 50000 steps with 400 atoms

Performance: 26701330.962 tau/day, 30904.318 timesteps/s, 12.362 Matom-step/s
99.4% CPU use with 64 MPI tasks x 1 OpenMP threads

MPI task timing breakdown:
Section |  min time  |  avg time  |  max time  |%varavg| %total
---------------------------------------------------------------
Pair    | 0.0099384  | 0.010781   | 0.011893   |   0.4 |  0.67
Neigh   | 0.017592   | 0.018117   | 0.019103   |   0.3 |  1.12
Comm    | 0.6791     | 0.78342    | 0.89021    |   6.4 | 48.42
Output  | 0.0034554  | 0.0036105  | 0.0054139  |   0.4 |  0.22
Modify  | 0.27732    | 0.4647     | 0.59159    |  11.5 | 28.72
Other   |            | 0.3373     |            |       | 20.85

Nlocal:           6.25 ave           8 max           4 min
Histogram: 1 0 13 0 0 23 0 23 0 4
Nghost:        17.3281 ave          21 max          13 min
Histogram: 1 1 8 10 0 16 11 9 7 1
Neighs:        12.1719 ave          20 max           6 min
Histogram: 4 7 7 10 8 11 8 6 2 1

Total # of neighbors = 779
Ave neighs/atom = 1.9475
Neighbor list builds = 16895
Dangerous builds = 0
Generated 0 of 0 mixed pair_coeff terms from geometric mixing rule
Setting up Verlet run ...
  Unit style    : lj
  Current step  : 50000
  Time step     : 0.01
Per MPI rank memory allocation (min/avg/max) = 3.068 | 3.068 | 3.068 Mbytes
   Step          Temp          E_pair         E_mol          TotEng         Press     
     50000   3.0443095      0.69215074     0              3.7288495      12.98635     
     50500   3.2078548      0.60823614     0              3.8080713      12.049632    
     51000   3.2924142      0.63805181     0              3.922235       12.566908    
     51500   3.1091266      0.69106529     0              3.7924191      12.847812    
     52000   3.183741       0.69634497     0              3.8721266      13.060214    
     52500   3.1355872      0.55170477     0              3.679453       11.405065    
     53000   2.9852913      0.70604004     0              3.6838681      12.621278    
     53500   2.8149649      0.76219858     0              3.5701261      13.041739    
     54000   3.0593164      0.65696096     0              3.708629       12.534242    
     54500   2.8710061      0.69246444     0              3.556293       12.434843    
     55000   3.0503705      0.64538685     0              3.6881314      12.405534    
     55500   3.1323439      0.64723591     0              3.771749       12.534974    
     56000   2.8458045      0.7723906      0              3.6110806      13.076878    
     56500   2.9727093      0.70070195     0              3.6659794      12.496412    
     57000   2.862464       0.72138289     0              3.5766907      12.794818    
     57500   2.8626957      0.60688678     0              3.4624258      11.647537    
     58000   2.8170299      0.56729266     0              3.3772799      11.337167    
     58500   2.7605561      0.73054912     0              3.4842038      12.9899      
     59000   2.8621099      0.5945772      0              3.4495318      11.755897    
     59500   2.9575058      0.59845052     0              3.5485625      11.87265     
     60000   2.8693161      0.59448086     0              3.4566236      11.874657    
     60500   2.8152117      0.62663448     0              3.4348082      11.999561    
     61000   2.9182402      0.61234243     0              3.523287       11.800455    
     61500   2.7905367      0.64596952     0              3.4295299      12.096013    
     62000   2.8317198      0.49864801     0              3.3232885      9.9876951    
     62500   2.6109595      0.51708035     0              3.1215125      10.304362    
     63000   2.6220431      0.51841153     0              3.1338995      10.512379    
     63500   2.5577818      0.55089571     0              3.102283       10.80913     
     64000   2.5649101      0.51475754     0              3.0732554      10.167567    
     64500   2.9025342      0.59985793     0              3.4951358      11.802233    
     65000   2.70072        0.61655719     0              3.3105253      11.581852    
     65500   2.5252141      0.64681849     0              3.1657195      12.010265    
     66000   2.5462669      0.6289518      0              3.1688531      11.774779    
     66500   2.694888       0.56263219     0              3.250783       10.856714    
     67000   2.6051504      0.60269909     0              3.2013366      11.455598    
     67500   2.6380639      0.55788149     0              3.1893502      10.929239    
     68000   2.46725        0.63990849     0              3.1009904      11.504507    
     68500   2.4372151      0.63725244     0              3.0683745      11.858909    
     69000   2.6628242      0.58577538     0              3.2419425      11.123594    
     69500   2.6002867      0.47418882     0              3.0679748      10.257255    
     70000   2.3059641      0.6484947      0              2.9486939      11.511755    
     70500   2.5058284      0.44857542     0              2.9481392      9.6180966    
     71000   2.4599034      0.47095937     0              2.924713       10.247461    
     71500   2.4165782      0.55198726     0              2.962524       10.777337    
     72000   2.3957733      0.59117441     0              2.9809582      11.131959    
     72500   2.415172       0.53773764     0              2.9468717      10.214       
     73000   2.4041015      0.50333734     0              2.9014286      10.305612    
     73500   2.4974025      0.50417522     0              2.9953342      10.359763    
     74000   2.4001641      0.46328051     0              2.8574442      9.7525289    
     74500   2.4318014      0.57277983     0              2.9985018      10.91885     
     75000   2.4972476      0.49196735     0              2.9829719      9.8759109    
     75500   2.4669538      0.43590016     0              2.8966866      9.3478782    
     76000   2.3668097      0.38194069     0              2.7428333      8.6383632    
     76500   2.2903372      0.49869892     0              2.7833102      9.9236162    
     77000   2.3100799      0.5497105      0              2.8540152      10.83033     
     77500   2.4774201      0.57764766     0              3.0488742      10.775468    
     78000   2.1761332      0.54881494     0              2.7195078      10.315954    
     78500   2.3134845      0.39514584     0              2.7028466      8.7220256    
     79000   2.1647385      0.55449312     0              2.7138197      10.110372    
     79500   2.1856571      0.43021235     0              2.6104053      9.4147108    
     80000   2.1193644      0.52350309     0              2.6375691      9.7583129    
     80500   2.1865849      0.45742323     0              2.6385417      9.5988628    
     81000   2.0713458      0.34026405     0              2.4064315      7.7303698    
     81500   2.0073059      0.4279171      0              2.4302048      9.0248321    
     82000   2.0233922      0.51367619     0              2.5320099      9.8553947    
     82500   2.0395458      0.41600252     0              2.4504494      8.5783043    
     83000   2.0552951      0.4055801      0              2.4557369      8.4605719    
     83500   1.8530891      0.50020397     0              2.3486603      9.5173153    
     84000   2.0489151      0.37236637     0              2.4161592      8.1255965    
     84500   1.8637323      0.45527927     0              2.3143523      8.9402301    
     85000   1.9860116      0.41790562     0              2.3989522      8.9157872    
     85500   2.0352213      0.32796415     0              2.3580974      7.7524356    
     86000   1.8092561      0.39169423     0              2.1964272      8.1306874    
     86500   1.8547721      0.38930328     0              2.2394385      8.3304223    
     87000   2.0149365      0.37578315     0              2.3856823      8.7412742    
     87500   1.9703518      0.41687894     0              2.3823049      8.7628979    
     88000   1.9672212      0.43711634     0              2.3994195      8.9917877    
     88500   2.0001297      0.43187436     0              2.4270037      9.3521089    
     89000   1.9462875      0.37909131     0              2.3205131      8.3419269    
     89500   1.9527122      0.36536814     0              2.3131986      8.0377717    
     90000   1.9256542      0.38244102     0              2.3032811      8.3082671    
     90500   1.9036351      0.38838189     0              2.2872579      8.1405441    
     91000   1.8129019      0.38512996     0              2.1934996      8.2929061    
     91500   1.8965539      0.40091238     0              2.2927248      8.8017985    
     92000   1.8597539      0.35358867     0              2.2086932      7.6092358    
     92500   1.8186782      0.32254162     0              2.1366731      7.5361469    
     93000   1.8983149      0.37006073     0              2.2636299      7.8944158    
     93500   1.7499083      0.35913609     0              2.1046696      7.9750557    
     94000   1.8136621      0.27071486     0              2.0798428      7.1256737    
     94500   1.7578164      0.29813305     0              2.0515549      7.1799111    
     95000   1.6786338      0.31086241     0              1.9852997      7.3514146    
     95500   1.5935944      0.28261889     0              1.8722293      6.8574392    
     96000   1.6146191      0.29471532     0              1.9052978      6.8604951    
     96500   1.7154426      0.30652364     0              2.0176777      6.9113162    
     97000   1.7106391      0.31257179     0              2.0189343      7.1576326    
     97500   1.5772719      0.35875121     0              1.9320799      7.6857618    
     98000   1.6209229      0.29185972     0              1.9087303      6.9409654    
     98500   1.4582729      0.37895523     0              1.8335825      7.9764583    
     99000   1.5947209      0.27070348     0              1.8614376      6.6764886    
     99500   1.5493781      0.28713823     0              1.8326429      6.837091     
    100000   1.4939608      0.32750522     0              1.8177311      7.0303952    
    100500   1.4272181      0.31241951     0              1.7360695      7.2926166    
    101000   1.4026171      0.27909995     0              1.6782105      6.2853485    
    101500   1.390953       0.29272585     0              1.6802015      6.8275287    
    102000   1.4970845      0.30254805     0              1.7958898      7.0376746    
    102500   1.5368493      0.2976342      0              1.8306414      6.7695324    
    103000   1.4806842      0.31514177     0              1.7921243      6.9826189    
    103500   1.4707934      0.26218829     0              1.7293047      6.3732874    
    104000   1.4504076      0.27763282     0              1.7244144      6.5002243    
    104500   1.4503785      0.28043527     0              1.7271878      6.4088968    
    105000   1.4377629      0.29583336     0              1.7300018      6.7952678    
    105500   1.3854523      0.32126323     0              1.7032519      6.9574972    
    106000   1.4439774      0.26288652     0              1.703254       5.9192537    
    106500   1.4187562      0.33205417     0              1.7472635      7.3342995    
    107000   1.5383668      0.23026984     0              1.7647907      5.7924656    
    107500   1.3565069      0.21710173     0              1.5702173      5.6702091    
    108000   1.3280495      0.22505704     0              1.5497864      5.7463493    
    108500   1.2686822      0.23962787     0              1.5051384      5.7372463    
    109000   1.2655923      0.26515093     0              1.5275792      6.3918162    
    109500   1.2947352      0.25417333     0              1.5456717      6.0274354    
    110000   1.3424795      0.23616354     0              1.5752868      5.8889154    
    110500   1.1998038      0.21519894     0              1.4120033      5.5052588    
    111000   1.215429       0.22169406     0              1.4340845      5.2952917    
    111500   1.0513909      0.25546177     0              1.3042242      5.9509079    
    112000   1.1189459      0.21657738     0              1.3327259      5.4341859    
    112500   1.1710281      0.20273392     0              1.3708345      5.2725223    
    113000   1.1162572      0.19438575     0              1.3078523      5.1049366    
    113500   1.1276166      0.18940237     0              1.3141999      4.9926182    
    114000   1.1320702      0.15012084     0              1.2793608      4.3991275    
    114500   1.1670651      0.22202867     0              1.3861761      5.7743051    
    115000   1.1607521      0.16814692     0              1.3259971      4.6395472    
    115500   1.2190069      0.17254305     0              1.3885024      4.9636075    
    116000   1.1053232      0.21130486     0              1.3138648      5.3944946    
    116500   1.1312772      0.21903711     0              1.3474861      5.3851177    
    117000   1.0405253      0.16105983     0              1.1989838      4.5203363    
    117500   1.025053       0.14396712     0              1.1664575      4.3251247    
    118000   0.92756784     0.17123867     0              1.0964876      4.5781998    
    118500   0.94724355     0.13360466     0              1.0784801      4.1288002    
    119000   1.0011968      0.14476396     0              1.1434577      4.0693164    
    119500   0.95851175     0.18657689     0              1.1426924      5.0366977    
    120000   1.0287057      0.12272359     0              1.1488575      3.8597565    
    120500   0.97873726     0.16001147     0              1.1363019      4.6315891    
    121000   1.0570499      0.16837719     0              1.2227844      4.7059493    
    121500   1.0264289      0.15971313     0              1.183576       4.399512     
    122000   0.88698052     0.19900877     0              1.0837718      5.1520323    
    122500   0.83318225     0.18361573     0              1.014715       4.5994097    
    123000   0.87933515     0.16590907     0              1.0430459      4.2964689    
    123500   0.84474257     0.18043056     0              1.0230613      4.6565348    
    124000   0.91927293     0.13909674     0              1.0560715      4.0032082    
    124500   0.89193347     0.13017899     0              1.0198826      3.9380197    
    125000   0.76409445     0.14615274     0              0.90833696     3.8609859    
    125500   0.73296482     0.15171488     0              0.88284729     3.9890989    
    126000   0.74428534     0.12553595     0              0.86796058     3.5704458    
    126500   0.74958234     0.12960682     0              0.8773152      3.9184321    
    127000   0.75196037     0.10621922     0              0.85629969     3.4888951    
    127500   0.71413258     0.091149814    0              0.80349707     3.0474178    
    128000   0.72427508     0.09108968     0              0.81355407     3.1134897    
    128500   0.67052526     0.10385832     0              0.77270727     3.1933985    
    129000   0.69524605     0.1093844      0              0.80289233     3.4559715    
    129500   0.68267538     0.10115663     0              0.78212532     3.0646755    
    130000   0.66076119     0.088992741    0              0.74810203     3.1539942    
    130500   0.6438011      0.08990126     0              0.73209285     2.7609327    
    131000   0.64225246     0.095555965    0              0.73620279     3.1698371    
    131500   0.59857778     0.079594363    0              0.6766757      2.7178913    
    132000   0.63399131     0.077301697    0              0.70970802     2.6581164    
    132500   0.61264242     0.061451393    0              0.67256221     2.5036417    
    133000   0.56364701     0.10988414     0              0.67212203     3.3247598    
    133500   0.5660569      0.090458964    0              0.65510072     2.9140991    
    134000   0.56199107     0.072785012    0              0.63337111     2.546127     
    134500   0.54848213     0.079909406    0              0.62702033     2.8145036    
    135000   0.50820791     0.083955347    0              0.59089273     2.7993845    
    135500   0.47971655     0.1043677      0              0.58288495     3.2034933    
    136000   0.49410538     0.075547374    0              0.56841749     2.5745483    
    136500   0.51188333     0.068276643    0              0.57888027     2.4746283    
    137000   0.53976228     0.058056773    0              0.59646964     2.3324044    
    137500   0.47297661     0.058498877    0              0.53029305     2.1998788    
    138000   0.4705303      0.062851923    0              0.53220589     2.2646343    
    138500   0.42745915     0.039677548    0              0.46606805     1.8172968    
    139000   0.4189497      0.042845803    0              0.46074812     1.7517395    
    139500   0.4122975      0.037140623    0              0.44840738     1.6776528    
    140000   0.36907209     0.050887216    0              0.41903662     1.8501898    
    140500   0.38008114     0.043835597    0              0.42296653     1.8963153    
    141000   0.37659187     0.037964421    0              0.41361481     1.6531382    
    141500   0.36316125     0.033801554    0              0.3960549      1.5714692    
    142000   0.34687399     0.035397459    0              0.38140426     1.561098     
    142500   0.35520035     0.043794951    0              0.3981073      1.8014685    
    143000   0.307016       0.033005492    0              0.33925395     1.4359484    
    143500   0.28920215     0.043880602    0              0.33235975     1.7855288    
    144000   0.29132242     0.031690511    0              0.32228462     1.4796192    
    144500   0.26531307     0.032646701    0              0.29729648     1.4051899    
    145000   0.23891477     0.0371257      0              0.27544318     1.6721885    
    145500   0.24454562     0.029482638    0              0.2734169      1.3350911    
    146000   0.20489584     0.021589802    0              0.2259734      1.1258685    
    146500   0.20204256     0.018843554    0              0.22038101     1.0288921    
    147000   0.19028263     0.012588212    0              0.20239514     0.80121699   
    147500   0.17782678     0.014479007    0              0.19186122     0.84184493   
    148000   0.1500838      0.013093043    0              0.16280163     0.78644039   
    148500   0.14621908     0.010618826    0              0.15647236     0.68489182   
    149000   0.14297635     0.012344014    0              0.15496292     0.79407731   
    149500   0.11179213     0.009788958    0              0.12130161     0.67188761   
    150000   0.10174373     0.0090937361   0              0.11058311     0.60697293   
Loop time of 2.89938 on 64 procs for 100000 steps with 400 atoms

Performance: 29799443.014 tau/day, 34490.096 timesteps/s, 13.796 Matom-step/s
99.5% CPU use with 64 MPI tasks x 1 OpenMP threads

MPI task timing breakdown:
Section |  min time  |  avg time  |  max time  |%varavg| %total
---------------------------------------------------------------
Pair    | 0.018369   | 0.019826   | 0.02171    |   0.5 |  0.68
Neigh   | 0.025246   | 0.026119   | 0.027457   |   0.3 |  0.90
Comm    | 1.1038     | 1.3185     | 1.5347     |   9.8 | 45.48
Output  | 0.072506   | 0.072673   | 0.073754   |   0.1 |  2.51
Modify  | 0.48094    | 0.83687    | 1.0841     |  16.9 | 28.86
Other   |            | 0.6254     |            |       | 21.57

Nlocal:           6.25 ave           8 max           4 min
Histogram: 2 0 11 0 0 26 0 19 0 6
Nghost:        17.5938 ave          21 max          14 min
Histogram: 2 5 9 0 11 20 0 9 7 1
Neighs:        12.6406 ave          19 max           8 min
Histogram: 9 3 9 15 7 5 5 4 4 3

Total # of neighbors = 809
Ave neighs/atom = 2.0225
Neighbor list builds = 24447
Dangerous builds = 0
Total wall time: 0:00:04
LAMMPS (15 Sep 2022)
OMP_NUM_THREADS environment is not set. Defaulting to 1 thread. (src/comm.cpp:98)
  using 1 OpenMP thread(s) per MPI task
Lattice spacing in x,y,z = 1.0540926 1.0540926 1.0540926
Created orthogonal box = (0 0 -0.52704628) to (21.081851 21.081851 0.52704628)
  8 by 8 by 1 MPI processor grid
Created 400 atoms
  using lattice units in orthogonal box = (0 0 -0.52704628) to (21.081851 21.081851 0.52704628)
  create_atoms CPU = 0.002 seconds
Generated 0 of 0 mixed pair_coeff terms from geometric mixing rule
Neighbor list info ...
  update: every = 1 steps, delay = 0 steps, check = yes
  max neighbors/atom: 2000, page size: 100000
  master list distance cutoff = 1.3
  ghost atom cutoff = 1.3
  binsize = 0.65, bins = 33 33 2
  1 neighbor lists, perpetual/occasional/extra = 1 0 0
  (1) pair lj/cut, perpetual
      attributes: half, newton on
      pair build: half/bin/atomonly/newton
      stencil: half/bin/2d
      bin: standard
Setting up Verlet run ...
  Unit style    : lj
  Current step  : 0
  Time step     : 0.01
Per MPI rank memory allocation (min/avg/max) = 3.047 | 3.047 | 3.047 Mbytes
   Step          Temp          E_pair         E_mol          TotEng         Press     
         0   3              0              0              2.9925         2.69325      
       500   3.004842       0.97182786     0              3.9691578      19.156053    
      1000   2.9917974      1.1328824      0              4.1172003      21.392951    
      1500   3.1537248      0.98073149     0              4.126572       19.33054     
      2000   3.0891816      1.0379565      0              4.1194151      20.055548    
      2500   3.1141116      1.0050929      0              4.1114192      19.741866    
      3000   3.0617222      1.1091007      0              4.1631686      20.864527    
      3500   2.9560162      1.0591959      0              4.0078221      19.766248    
      4000   3.297947       0.86158636     0              4.1512885      17.943299    
      4500   3.0660396      1.0156985      0              4.074073       19.781402    
      5000   3.1221805      0.88336584     0              3.9977409      18.157333    
      5500   2.8761976      1.2029229      0              4.07193        21.818648    
      6000   3.2257846      0.94908203     0              4.1668021      18.861134    
      6500   3.0198446      1.0089239      0              4.021219       19.363374    
      7000   3.1432043      0.91226508     0              4.0476114      18.208501    
      7500   3.1869197      0.96113187     0              4.1400842      19.383993    
      8000   3.0318927      0.97701908     0              4.0013321      19.470937    
      8500   3.0873681      1.0600437      0              4.1396933      20.302805    
      9000   3.1323638      0.95961511     0              4.084148       18.644782    
      9500   3.024516       1.0607341      0              4.0776889      19.959988    
     10000   3.1682936      0.97101794     0              4.1313908      18.74252     
     10500   3.0094278      0.9535047      0              3.955409       19.280006    
     11000   2.8136861      1.0146366      0              3.8212885      19.067623    
     11500   3.024413       0.96537878     0              3.9822307      19.029262    
     12000   3.143449       0.82917114     0              3.9647615      17.142994    
     12500   2.8753074      1.0150222      0              3.8831413      19.733033    
     13000   2.8754924      1.0129865      0              3.8812902      18.94426     
     13500   2.9705356      1.0015477      0              3.964657       19.706463    
     14000   3.0468854      0.98035162     0              4.0196198      19.168317    
     14500   3.008678       0.98513151     0              3.9862878      19.866077    
     15000   2.8955067      1.0113472      0              3.8996152      19.332781    
     15500   2.8250701      0.99813848     0              3.8161459      19.337987    
     16000   2.7075714      0.97294068     0              3.6737432      18.870461    
     16500   2.6594973      1.1373265      0              3.790175       19.942507    
     17000   2.8606626      1.0154426      0              3.8689536      19.212819    
     17500   2.9731991      1.0218229      0              3.9875889      19.581141    
     18000   3.1022976      0.92114985     0              4.0156917      18.689653    
     18500   3.1564366      0.92463695     0              4.0731824      18.887281    
     19000   2.9825494      1.0994356      0              4.0745286      20.372144    
     19500   3.2029879      0.93642778     0              4.1314082      19.063698    
     20000   2.9044799      1.0641926      0              3.9614112      19.923771    
     20500   2.9373917      1.1254534      0              4.0555016      20.74548     
     21000   2.9242705      1.0983989      0              4.0153588      20.240006    
     21500   3.1661404      1.0649824      0              4.2232074      20.602106    
     22000   3.1407243      1.1363185      0              4.269191       20.805129    
     22500   3.2005776      0.99008307     0              4.1826593      19.627487    
     23000   3.1087889      1.0268766      0              4.1278936      19.883472    
     23500   2.9826857      1.1136025      0              4.0888315      20.511575    
     24000   2.9877885      1.0009381      0              3.9812572      19.893516    
     24500   2.9197951      0.90576466     0              3.8182603      18.254987    
     25000   2.8162003      0.91730122     0              3.726461       18.10103     
     25500   2.8922392      1.0012152      0              3.8862238      19.452144    
     26000   3.0947161      1.0033882      0              4.0903674      19.416718    
     26500   3.1551476      1.0645217      0              4.2117814      20.229759    
     27000   2.9919818      1.1074066      0              4.0919084      20.746434    
     27500   2.9820257      0.97490576     0              3.9494764      19.098628    
     28000   3.0187866      1.0579997      0              4.0692393      20.322024    
     28500   3.2651308      0.9429321      0              4.1999         18.770127    
     29000   3.137024       0.99275901     0              4.1219404      19.593937    
     29500   3.1198142      0.99754004     0              4.1095547      19.628385    
     30000   3.3094018      0.99712282     0              4.2982511      19.428109    
     30500   2.8898121      0.97795036     0              3.8605379      18.806562    
     31000   2.821014       0.99575017     0              3.8097117      18.381037    
     31500   2.8415517      0.88483311     0              3.7192809      18.001449    
     32000   2.8839037      1.0372952      0              3.9139892      19.901356    
     32500   2.8411904      0.8687878      0              3.7028752      17.744046    
     33000   2.994794       0.94054633     0              3.9278533      18.590749    
     33500   2.9036021      1.0090768      0              3.90542        19.255545    
     34000   2.923094       0.8907748      0              3.806561       17.650298    
     34500   2.7316902      0.97276656     0              3.6976276      18.803974    
     35000   2.9571204      0.80050482     0              3.7502324      17.022719    
     35500   2.6370353      1.0264756      0              3.6569183      18.781087    
     36000   2.8182541      0.86656786     0              3.6777763      17.30841     
     36500   2.9718529      0.87211428     0              3.8365375      17.907548    
     37000   2.963334       1.0591849      0              4.0151106      20.113955    
     37500   3.0471427      1.1030784      0              4.1426032      21.258352    
     38000   3.1168005      1.0362069      0              4.1452154      19.960515    
     38500   3.0656423      1.0004002      0              4.0583785      19.501182    
     39000   3.0139072      1.0297808      0              4.0361532      19.481543    
     39500   3.0752666      0.98927699     0              4.0568554      19.199869    
     40000   2.9944996      0.97262002     0              3.9596333      18.658027    
     40500   3.1288481      1.0747418      0              4.1957678      20.308939    
     41000   3.0761077      1.0554072      0              4.1238247      19.706636    
     41500   3.0334574      0.93277807     0              3.9586518      18.342821    
     42000   3.0437669      0.98477057     0              4.020928       19.018364    
     42500   3.1418408      1.019488       0              4.1534742      19.445574    
     43000   3.187584       0.9395768      0              4.1191919      18.764332    
     43500   3.3120903      0.91790431     0              4.2217144      18.119644    
     44000   3.1845273      1.014127       0              4.190693       19.769643    
     44500   3.0169866      1.0100246      0              4.0194687      19.392642    
     45000   3.1167807      1.105836       0              4.2148247      20.575688    
     45500   3.1958144      0.98273961     0              4.1705645      19.707895    
     46000   2.8159572      1.0295342      0              3.8384515      19.946101    
     46500   3.0182841      0.82959936     0              3.8403378      17.520116    
     47000   2.8921783      0.91324139     0              3.7981893      18.520816    
     47500   2.6948776      0.96450881     0              3.6526492      18.245771    
     48000   2.9487007      0.90921979     0              3.8505487      18.463725    
     48500   3.0447369      1.0835323      0              4.1206574      20.071038    
     49000   3.2849279      1.0827708      0              4.3594864      20.797513    
     49500   3.0778156      0.98840043     0              4.0585214      18.958482    
     50000   3.1156386      1.0955791      0              4.2034286      20.01708     
Loop time of 1.61096 on 64 procs for 50000 steps with 400 atoms

Performance: 26816225.212 tau/day, 31037.298 timesteps/s, 12.415 Matom-step/s
99.4% CPU use with 64 MPI tasks x 1 OpenMP threads

MPI task timing breakdown:
Section |  min time  |  avg time  |  max time  |%varavg| %total
---------------------------------------------------------------
Pair    | 0.011453   | 0.012475   | 0.014011   |   0.4 |  0.77
Neigh   | 0.018057   | 0.018791   | 0.020258   |   0.3 |  1.17
Comm    | 0.69951    | 0.80056    | 0.92311    |   6.2 | 49.69
Output  | 0.0038666  | 0.0050606  | 0.0068193  |   0.4 |  0.31
Modify  | 0.26625    | 0.45462    | 0.58196    |  11.8 | 28.22
Other   |            | 0.3195     |            |       | 19.83

Nlocal:           6.25 ave           8 max           5 min
Histogram: 13 0 0 27 0 0 19 0 0 5
Nghost:        18.5312 ave          22 max          15 min
Histogram: 3 3 12 0 11 18 0 11 3 3
Neighs:        14.2969 ave          20 max           9 min
Histogram: 5 8 5 10 6 10 6 5 1 8

Total # of neighbors = 915
Ave neighs/atom = 2.2875
Neighbor list builds = 16866
Dangerous builds = 7
Generated 0 of 0 mixed pair_coeff terms from geometric mixing rule
Setting up Verlet run ...
  Unit style    : lj
  Current step  : 50000
  Time step     : 0.01
Per MPI rank memory allocation (min/avg/max) = 3.068 | 3.068 | 3.068 Mbytes
   Step          Temp          E_pair         E_mol          TotEng         Press     
     50000   3.1156386      1.0955791      0              4.2034286      20.01708     
     50500   3.0822395      1.0487017      0              4.1232356      20.03815     
     51000   2.9555903      1.1344324      0              4.0826337      20.960139    
     51500   2.9572243      1.1235833      0              4.0734146      20.420359    
     52000   2.9963967      1.326032       0              4.3149377      22.511217    
     52500   3.1572454      0.93009498     0              4.0794472      18.464122    
     53000   3.0277887      1.1466666      0              4.1668858      21.080662    
     53500   3.1705577      0.92320698     0              4.0858383      17.932744    
     54000   2.8496595      1.1067032      0              3.9492386      20.856847    
     54500   2.8523986      1.1235073      0              3.9687749      20.173561    
     55000   2.8959172      1.0599162      0              3.9485936      20.17117     
     55500   3.0972023      1.0416295      0              4.1310888      19.788606    
     56000   2.8640859      0.90180792     0              3.7587336      18.17481     
     56500   2.789527       0.78361534     0              3.5661685      16.395608    
     57000   2.7019104      0.99831177     0              3.6934674      18.843107    
     57500   2.8006725      0.81662623     0              3.610297       16.854078    
     58000   2.7296304      0.80159584     0              3.5244022      16.841983    
     58500   2.5531017      0.8940601      0              3.4407791      17.709701    
     59000   2.5165574      0.90104734     0              3.4113133      17.910645    
     59500   2.5859958      0.90929325     0              3.4888241      18.08027     
     60000   2.5790472      0.80932175     0              3.3819213      16.420983    
     60500   2.783439       0.77901471     0              3.5554951      16.424566    
     61000   2.6460517      0.94545635     0              3.5848929      18.151938    
     61500   2.8814709      0.7985771      0              3.6728443      16.566652    
     62000   2.8078582      0.87134716     0              3.6721858      17.515708    
     62500   2.7457099      0.95983428     0              3.6986799      18.677918    
     63000   2.5115637      0.87871871     0              3.3840035      17.77771     
     63500   2.6794393      0.76431399     0              3.4370547      15.86183     
     64000   2.6151453      0.86804774     0              3.4766552      17.926537    
     64500   2.5320955      0.85959523     0              3.3853605      17.213744    
     65000   2.5491179      0.94176766     0              3.4845127      17.795948    
     65500   2.5110901      0.80214389     0              3.3069563      16.088733    
     66000   2.5227528      0.82089459     0              3.3373405      16.652134    
     66500   2.6820679      0.76261629     0              3.437979       16.046965    
     67000   2.5408279      1.0076071      0              3.5420829      18.770365    
     67500   2.6305177      1.1074622      0              3.7314037      20.50743     
     68000   2.5560327      0.78530587     0              3.3349485      16.325187    
     68500   2.3890404      0.948073       0              3.3311408      18.424707    
     69000   2.4546938      0.844309       0              3.2928661      17.001716    
     69500   2.389403       0.84045682     0              3.2238863      16.610357    
     70000   2.3996481      0.97673281     0              3.3703818      18.376071    
     70500   2.4810021      0.83662753     0              3.3114271      17.179516    
     71000   2.4989902      0.75125887     0              3.2440016      15.989183    
     71500   2.4231792      0.90480211     0              3.3219234      17.549673    
     72000   2.4361351      0.74860274     0              3.1786475      16.001191    
     72500   2.4761168      0.65704936     0              3.1269758      14.945595    
     73000   2.3262487      0.75342896     0              3.073862       15.983805    
     73500   2.1999704      0.87015823     0              3.0646287      17.050104    
     74000   2.2278996      0.71189939     0              2.9342292      15.120318    
     74500   2.305689       0.6952879      0              2.9952127      14.872415    
     75000   2.2650314      0.62226062     0              2.8816294      13.634801    
     75500   2.1500116      0.81824724     0              2.9628838      16.42341     
     76000   2.2815863      0.66665847     0              2.9425408      14.381547    
     76500   2.4405054      0.87690866     0              3.3113128      17.72342     
     77000   2.354021       0.77927092     0              3.1274069      15.932365    
     77500   2.2665091      0.75049889     0              3.0113417      16.061854    
     78000   2.2565212      0.69546098     0              2.9463409      15.197175    
     78500   2.1615918      0.76857994     0              2.9247677      15.660454    
     79000   2.3214395      0.67785898     0              2.9934949      14.417285    
     79500   2.3847511      0.8127559      0              3.1915451      16.318149    
     80000   2.1299851      0.79318554     0              2.9178457      15.667279    
     80500   2.2080553      0.74510381     0              2.9476389      15.498904    
     81000   2.2828046      0.77904186     0              3.0561394      15.840393    
     81500   2.3055549      0.64212437     0              2.9419154      14.039243    
     82000   2.2427401      0.68633851     0              2.9234718      15.111883    
     82500   2.1505026      0.68907976     0              2.8342062      15.20224     
     83000   2.1466368      0.62999137     0              2.7712616      14.104688    
     83500   1.937187       0.70152266     0              2.6338667      14.848984    
     84000   2.1367217      0.62614058     0              2.7575204      13.813636    
     84500   2.1183954      0.71197493     0              2.8250744      15.300515    
     85000   2.0943804      0.64265316     0              2.7317976      13.964493    
     85500   2.0555402      0.58260256     0              2.6330039      13.59425     
     86000   1.9603073      0.59462203     0              2.5500285      12.915331    
     86500   1.7552582      0.55816928     0              2.3090394      12.662304    
     87000   1.8297484      0.49828509     0              2.3234591      11.646663    
     87500   1.7830663      0.6212695      0              2.3998781      13.07058     
     88000   1.8992343      0.68024649     0              2.5747327      14.66902     
     88500   2.0153926      0.60668972     0              2.6170439      13.271662    
     89000   1.8847632      0.60457409     0              2.4846254      13.438581    
     89500   1.9118271      0.56615591     0              2.4732034      12.836269    
     90000   1.8097435      0.62974819     0              2.4349673      14.121657    
     90500   1.8075396      0.69894178     0              2.5019625      14.46512     
     91000   1.8529205      0.54497527     0              2.3932634      12.686695    
     91500   1.9000503      0.51374948     0              2.4090497      12.147598    
     92000   1.7083548      0.55642832     0              2.2605123      12.580053    
     92500   1.7865275      0.50715591     0              2.2892171      11.840149    
     93000   1.7351764      0.58268713     0              2.3135256      12.908188    
     93500   1.4975609      0.48754482     0              1.9813618      11.373592    
     94000   1.710413       0.42599072     0              2.1321277      10.954859    
     94500   1.6077682      0.55548953     0              2.1592383      12.447623    
     95000   1.7262643      0.49203006     0              2.2139787      11.736598    
     95500   1.745818       0.51079802     0              2.2522515      11.748687    
     96000   1.7181227      0.49664413     0              2.2104715      11.876258    
     96500   1.7613191      0.43713459     0              2.1940504      10.940444    
     97000   1.6938569      0.55868344     0              2.2483057      12.321121    
     97500   1.7809917      0.561919       0              2.3384582      12.471415    
     98000   1.8129366      0.48916827     0              2.2975725      11.827412    
     98500   1.6869562      0.49368649     0              2.1764253      11.618084    
     99000   1.6393197      0.56148351     0              2.1967049      12.209016    
     99500   1.5947822      0.50100711     0              2.0918023      11.639512    
    100000   1.5159099      0.53368245     0              2.0458026      12.139499    
    100500   1.4952584      0.49412111     0              1.9856414      11.778271    
    101000   1.6352103      0.41042134     0              2.0415436      10.061693    
    101500   1.4955871      0.39559799     0              1.8874461      10.128922    
    102000   1.4690626      0.442453       0              1.9078429      10.841131    
    102500   1.5805799      0.41826934     0              1.9948978      10.274643    
    103000   1.4998389      0.4224275      0              1.9185168      10.638406    
    103500   1.3795015      0.53660156     0              1.9126544      11.973362    
    104000   1.5736364      0.40100276     0              1.9707051      10.108949    
    104500   1.43057        0.44996398     0              1.8769575      10.446849    
    105000   1.4352306      0.48112611     0              1.9127687      11.21099     
    105500   1.4578301      0.38912231     0              1.8433079      9.8149045    
    106000   1.4360606      0.39758665     0              1.8300571      10.185731    
    106500   1.4098867      0.36265105     0              1.769013       9.4194456    
    107000   1.2799088      0.4202336      0              1.6969427      10.063478    
    107500   1.3678627      0.34738662     0              1.7118297      8.9894106    
    108000   1.2834835      0.39190354     0              1.6721783      9.7892202    
    108500   1.2940918      0.32758556     0              1.6184421      8.8144457    
    109000   1.2241679      0.43305767     0              1.6541652      10.466799    
    109500   1.2600033      0.37111271     0              1.627966       9.3776934    
    110000   1.1531929      0.3278587      0              1.4781686      8.8467892    
    110500   1.2050869      0.27560911     0              1.4776833      7.9131529    
    111000   1.1737948      0.3453585      0              1.5162189      8.9971312    
    111500   1.1979338      0.33481321     0              1.5297522      8.6217539    
    112000   1.2657067      0.37374177     0              1.6362842      9.4592357    
    112500   1.2856566      0.32375588     0              1.6061983      8.770832     
    113000   1.1568345      0.34588234     0              1.4998248      9.0645229    
    113500   1.1829564      0.30449792     0              1.484497       8.5250719    
    114000   1.1719256      0.32465252     0              1.4936483      8.687862     
    114500   1.17832        0.29154827     0              1.4669225      7.8604202    
    115000   1.1630251      0.30301887     0              1.4631364      8.4230658    
    115500   1.1908861      0.33159654     0              1.5195054      8.45988      
    116000   1.1498413      0.32732645     0              1.4742932      8.6324248    
    116500   1.1407001      0.30855186     0              1.4464003      8.1704427    
    117000   1.0860797      0.31256421     0              1.3959287      8.0825414    
    117500   1.0631535      0.28305997     0              1.3435555      7.8002055    
    118000   1.0914432      0.30464282     0              1.3933574      8.0759416    
    118500   1.0403103      0.35779707     0              1.3955066      9.0937546    
    119000   1.0137444      0.25230505     0              1.263515       7.3452871    
    119500   0.99728294     0.22903559     0              1.2238253      6.7033948    
    120000   0.97214103     0.26703713     0              1.2367478      7.5852819    
    120500   1.0275784      0.23949077     0              1.2645003      7.1594243    
    121000   1.0091227      0.24066437     0              1.2472643      6.8144476    
    121500   1.0564116      0.22491982     0              1.2786904      6.9568062    
    122000   0.91768029     0.27701171     0              1.1923978      7.5385821    
    122500   0.98569259     0.22550562     0              1.208734       6.9111579    
    123000   0.90972686     0.2172128      0              1.1246653      6.7091262    
    123500   0.84881044     0.30175171     0              1.1484401      7.9960279    
    124000   0.85439201     0.22601404     0              1.0782701      6.5612771    
    124500   0.87273131     0.23394271     0              1.1044922      6.6474151    
    125000   0.85679718     0.20939176     0              1.064047       6.6066722    
    125500   0.82580727     0.21855364     0              1.0422964      6.5643353    
    126000   0.81771393     0.24012725     0              1.0557969      6.7971774    
    126500   0.79853029     0.1956253      0              0.99215926     5.8372616    
    127000   0.7888449      0.21793324     0              1.004806       6.7493777    
    127500   0.8084638      0.2443815      0              1.0508241      6.8140632    
    128000   0.72161937     0.21124102     0              0.93105634     6.4715547    
    128500   0.75150012     0.16850904     0              0.91813041     5.5414207    
    129000   0.65870853     0.19261634     0              0.8496781      5.6130859    
    129500   0.69407381     0.16493269     0              0.85727132     5.3175297    
    130000   0.69031153     0.16728463     0              0.85587038     5.460926     
    130500   0.65207868     0.17569981     0              0.82614829     5.6124411    
    131000   0.63761524     0.16974646     0              0.80576766     5.4060676    
    131500   0.6429516      0.15481879     0              0.79616302     5.0529147    
    132000   0.59348736     0.18710575     0              0.7791094      5.6459576    
    132500   0.62225638     0.15570503     0              0.77640577     5.2866618    
    133000   0.65344425     0.15853518     0              0.81034582     5.0874479    
    133500   0.64488172     0.1394582      0              0.78272771     4.7693608    
    134000   0.57310802     0.15162626     0              0.72330151     5.2060471    
    134500   0.54195311     0.14642431     0              0.68702254     4.7946976    
    135000   0.51710105     0.11433532     0              0.63014362     4.1727799    
    135500   0.54099158     0.094845245    0              0.63448435     3.9338549    
    136000   0.47907803     0.15289994     0              0.63078027     5.0142791    
    136500   0.47408464     0.13075229     0              0.60365172     4.4925095    
    137000   0.43673882     0.13549701     0              0.57114398     4.4801507    
    137500   0.46560791     0.099242278    0              0.56368617     3.7915217    
    138000   0.4311251      0.072703092    0              0.50275038     3.0767873    
    138500   0.43291004     0.091931291    0              0.52375906     3.6299931    
    139000   0.45514499     0.067434981    0              0.52144211     2.9753549    
    139500   0.41791134     0.091490574    0              0.50835714     3.5939631    
    140000   0.40937885     0.092461663    0              0.50081707     3.6249217    
    140500   0.39178458     0.080090554    0              0.47089567     3.2592351    
    141000   0.36868457     0.071529989    0              0.43929285     3.0089007    
    141500   0.33764288     0.072776896    0              0.40957567     3.0116331    
    142000   0.32141465     0.059964637    0              0.38057575     2.6557998    
    142500   0.31202169     0.061683176    0              0.37292481     2.6747432    
    143000   0.30177161     0.055199969    0              0.35621715     2.6730573    
    143500   0.29379469     0.048999493    0              0.34205969     2.4131435    
    144000   0.29043322     0.050771807    0              0.34047895     2.4034019    
    144500   0.26391218     0.05675011     0              0.32000251     2.4829579    
    145000   0.26272424     0.038470013    0              0.30053744     2.0319769    
    145500   0.21358672     0.029981995    0              0.24303475     1.6496437    
    146000   0.20403115     0.041844929    0              0.24536601     1.9484156    
    146500   0.1985058      0.032543506    0              0.23055304     1.7730024    
    147000   0.18776134     0.029515331    0              0.21680727     1.6738524    
    147500   0.17496359     0.024104263    0              0.19863045     1.5152398    
    148000   0.17342501     0.024755769    0              0.19774721     1.4849193    
    148500   0.14704146     0.02155993     0              0.16823378     1.2785277    
    149000   0.12527902     0.01983091     0              0.14479674     1.1911343    
    149500   0.11163382     0.012141415    0              0.12349615     0.84007007   
    150000   0.098590339    0.012910623    0              0.11125449     0.87168353   
Loop time of 2.96782 on 64 procs for 100000 steps with 400 atoms

Performance: 29112297.322 tau/day, 33694.789 timesteps/s, 13.478 Matom-step/s
99.5% CPU use with 64 MPI tasks x 1 OpenMP threads

MPI task timing breakdown:
Section |  min time  |  avg time  |  max time  |%varavg| %total
---------------------------------------------------------------
Pair    | 0.021079   | 0.023113   | 0.025888   |   0.6 |  0.78
Neigh   | 0.02568    | 0.026849   | 0.031055   |   0.5 |  0.90
Comm    | 1.1263     | 1.3347     | 1.579      |  10.0 | 44.97
Output  | 0.075449   | 0.075646   | 0.076699   |   0.1 |  2.55
Modify  | 0.48046    | 0.85969    | 1.1139     |  17.3 | 28.97
Other   |            | 0.6478     |            |       | 21.83

Nlocal:           6.25 ave           8 max           4 min
Histogram: 2 0 7 0 0 33 0 17 0 5
Nghost:           18.5 ave          23 max          15 min
Histogram: 2 5 15 13 0 9 12 3 4 1
Neighs:        15.6406 ave          24 max           8 min
Histogram: 1 4 2 16 14 11 6 5 4 1

Total # of neighbors = 1001
Ave neighs/atom = 2.5025
Neighbor list builds = 24206
Dangerous builds = 0
Total wall time: 0:00:04
LAMMPS (15 Sep 2022)
OMP_NUM_THREADS environment is not set. Defaulting to 1 thread. (src/comm.cpp:98)
  using 1 OpenMP thread(s) per MPI task
Lattice spacing in x,y,z = 1 1 1
Created orthogonal box = (0 0 -0.5) to (20 20 0.5)
  8 by 8 by 1 MPI processor grid
Created 400 atoms
  using lattice units in orthogonal box = (0 0 -0.5) to (20 20 0.5)
  create_atoms CPU = 0.002 seconds
Generated 0 of 0 mixed pair_coeff terms from geometric mixing rule
Neighbor list info ...
  update: every = 1 steps, delay = 0 steps, check = yes
  max neighbors/atom: 2000, page size: 100000
  master list distance cutoff = 1.3
  ghost atom cutoff = 1.3
  binsize = 0.65, bins = 31 31 2
  1 neighbor lists, perpetual/occasional/extra = 1 0 0
  (1) pair lj/cut, perpetual
      attributes: half, newton on
      pair build: half/bin/atomonly/newton
      stencil: half/bin/2d
      bin: standard
Setting up Verlet run ...
  Unit style    : lj
  Current step  : 0
  Time step     : 0.01
Per MPI rank memory allocation (min/avg/max) = 3.047 | 3.047 | 3.047 Mbytes
   Step          Temp          E_pair         E_mol          TotEng         Press     
         0   3              0              0              2.9925         2.9925       
       500   3.3558552      1.4559053      0              4.8033709      30.366916    
      1000   3.1550652      1.7115944      0              4.8587719      33.569479    
      1500   2.863901       1.7282332      0              4.5849745      33.131463    
      2000   2.9444372      1.5164293      0              4.4535055      30.529615    
      2500   2.9441392      1.5149822      0              4.451761       30.150987    
      3000   3.0728656      1.4630592      0              4.5282427      30.307379    
      3500   2.9253898      1.4559432      0              4.3740195      29.58611     
      4000   2.8964443      1.6672397      0              4.5564428      31.756093    
      4500   2.9985078      1.5207051      0              4.5117166      31.068596    
      5000   3.235272       1.5133766      0              4.7405604      30.74446     
      5500   2.923967       1.8090169      0              4.725674       33.869543    
      6000   3.2785179      1.66756        0              4.9378816      32.402026    
      6500   2.9097932      1.6649623      0              4.567481       32.106438    
      7000   3.1064839      1.3352019      0              4.4339195      28.284844    
      7500   3.0547836      1.4769138      0              4.5240605      29.752613    
      8000   3.1518205      1.6833317      0              4.8272726      33.439032    
      8500   2.8040941      1.9353589      0              4.7324428      35.250472    
      9000   3.1755751      1.6380653      0              4.8057015      32.339967    
      9500   3.0440608      1.5658158      0              4.6022665      30.751319    
     10000   3.0184008      1.4610664      0              4.4719213      29.563076    
     10500   2.9516644      1.5505375      0              4.4948227      30.592327    
     11000   2.8578266      1.6227433      0              4.4734254      31.997125    
     11500   2.9425621      1.606039       0              4.5412448      31.771852    
     12000   2.949065       1.6109294      0              4.5526218      31.45002     
     12500   2.8888513      1.4400142      0              4.3216434      29.393624    
     13000   2.9557133      1.4934645      0              4.4417885      29.870249    
     13500   2.8119316      1.7009463      0              4.505848       32.413231    
     14000   3.3361411      1.520415       0              4.8482158      31.293549    
     14500   3.1780553      1.8658704      0              5.0359805      34.989703    
     15000   2.903545       1.671028       0              4.5673142      32.074455    
     15500   2.8600584      1.6374403      0              4.4903485      31.95153     
     16000   3.1953035      1.3524662      0              4.5397814      28.446204    
     16500   2.9964086      1.7147596      0              4.7036772      33.508965    
     17000   3.0031551      1.6285687      0              4.6242159      31.687906    
     17500   2.8794389      1.5648502      0              4.4370905      31.133958    
     18000   2.9104204      1.5588667      0              4.462011       30.703869    
     18500   3.4494853      1.4510089      0              4.8918704      30.315667    
     19000   3.301798       1.7218074      0              5.015351       33.472016    
     19500   3.1361087      1.5585695      0              4.6868379      31.390212    
     20000   3.0485451      1.6269989      0              4.6679226      31.924265    
     20500   2.9753078      1.6588932      0              4.6267628      32.221667    
     21000   2.863103       1.596768       0              4.4527132      31.441155    
     21500   2.9059766      1.5832806      0              4.4819923      30.987374    
     22000   2.9690641      1.4577306      0              4.4193721      30.294066    
     22500   3.1706285      1.6157399      0              4.7784418      31.696652    
     23000   3.0968902      1.8092274      0              4.8983754      34.938288    
     23500   3.2057787      1.6525818      0              4.850346       31.945271    
     24000   2.9604085      1.8045647      0              4.7575722      33.811872    
     24500   3.1191581      1.524858       0              4.6362181      31.013385    
     25000   2.7803478      1.762372       0              4.5357689      33.149888    
     25500   3.3212901      1.3163011      0              4.629288       28.057304    
     26000   3.0869346      1.7155105      0              4.7947277      33.53999     
     26500   3.2703899      1.690109       0              4.9523229      32.724214    
     27000   3.211328       1.605287       0              4.8085866      32.06933     
     27500   3.1575123      1.7703826      0              4.9200011      34.046847    
     28000   3.0408932      1.653706       0              4.686997       32.527904    
     28500   3.1530033      1.8333075      0              4.9784283      34.651152    
     29000   3.2567141      1.6864004      0              4.9349727      32.963905    
     29500   2.9445548      1.7831564      0              4.7203499      33.721552    
     30000   3.1207927      1.5987075      0              4.7116983      32.095614    
     30500   2.7561529      1.6493987      0              4.3986612      32.436955    
     31000   2.8654974      1.633561       0              4.4918946      32.602016    
     31500   2.8997536      1.5294959      0              4.4220001      30.482184    
     32000   3.0945883      1.4449481      0              4.5318         29.137232    
     32500   3.0245203      1.5046237      0              4.5215827      30.143435    
     33000   3.0435458      1.5470268      0              4.5829637      31.322693    
     33500   3.0405798      1.6478008      0              4.6807792      32.080778    
     34000   3.1104318      1.8522433      0              4.9548991      34.81378     
     34500   3.027455       1.6912147      0              4.711101       33.49445     
     35000   3.1402036      1.4239223      0              4.5562754      29.69168     
     35500   2.9631852      1.4996217      0              4.4553989      29.709156    
     36000   2.8721064      1.5819111      0              4.4468372      30.853978    
     36500   3.0032937      1.4469407      0              4.4427262      29.947545    
     37000   2.9293289      1.6290836      0              4.5510892      31.873771    
     37500   3.0657977      1.362289       0              4.4204222      29.21914     
     38000   2.9324518      1.7057294      0              4.6308501      32.097887    
     38500   3.4055906      1.7998109      0              5.1968875      34.224007    
     39000   3.0989503      1.4330672      0              4.5242701      29.744685    
     39500   2.8820426      1.5608143      0              4.4356518      31.598471    
     40000   2.8166982      1.6162555      0              4.425912       31.290884    
     40500   2.7989953      1.6760889      0              4.4680867      32.67831     
     41000   3.1019774      1.4175477      0              4.5117702      29.700258    
     41500   3.0359474      1.4842087      0              4.5125662      30.343109    
     42000   3.0825241      1.4495765      0              4.5243944      29.718161    
     42500   3.0096189      1.3900854      0              4.3921802      28.993402    
     43000   3.0110758      1.5026953      0              4.5062434      30.172962    
     43500   2.9877597      1.5099296      0              4.4902199      31.116077    
     44000   3.0689059      1.5729301      0              4.6341637      32.453804    
     44500   3.0608556      1.8502601      0              4.9034636      34.464212    
     45000   3.1525631      1.7046654      0              4.8493471      33.080822    
     45500   3.2175568      1.6808092      0              4.8903221      32.493393    
     46000   3.1583609      1.4795952      0              4.6300602      30.163491    
     46500   2.9226387      1.5892255      0              4.5045577      31.417994    
     47000   2.9112409      1.4968446      0              4.4008074      30.091078    
     47500   3.0000147      1.4673378      0              4.4598524      30.252759    
     48000   2.9077374      1.5094083      0              4.4098763      30.202635    
     48500   2.9888904      1.4151152      0              4.3965334      29.560342    
     49000   3.1175704      1.4650587      0              4.5748352      29.926431    
     49500   3.0510902      1.8008235      0              4.8442859      35.137632    
     50000   3.0908255      1.5515604      0              4.6346588      30.568055    
Loop time of 1.63154 on 64 procs for 50000 steps with 400 atoms

Performance: 26478123.664 tau/day, 30645.976 timesteps/s, 12.258 Matom-step/s
99.5% CPU use with 64 MPI tasks x 1 OpenMP threads

MPI task timing breakdown:
Section |  min time  |  avg time  |  max time  |%varavg| %total
---------------------------------------------------------------
Pair    | 0.013325   | 0.014539   | 0.015884   |   0.4 |  0.89
Neigh   | 0.018651   | 0.019459   | 0.020602   |   0.3 |  1.19
Comm    | 0.69286    | 0.79883    | 0.9284     |   6.6 | 48.96
Output  | 0.0035302  | 0.0036704  | 0.0060807  |   0.5 |  0.22
Modify  | 0.27363    | 0.47277    | 0.61214    |  12.1 | 28.98
Other   |            | 0.3223     |            |       | 19.75

Nlocal:           6.25 ave           8 max           5 min
Histogram: 15 0 0 25 0 0 17 0 0 7
Nghost:        19.8281 ave          25 max          16 min
Histogram: 4 5 9 8 15 11 5 4 2 1
Neighs:        16.8125 ave          23 max          10 min
Histogram: 3 3 8 7 10 7 11 5 4 6

Total # of neighbors = 1076
Ave neighs/atom = 2.69
Neighbor list builds = 16898
Dangerous builds = 0
Generated 0 of 0 mixed pair_coeff terms from geometric mixing rule
Setting up Verlet run ...
  Unit style    : lj
  Current step  : 50000
  Time step     : 0.01
Per MPI rank memory allocation (min/avg/max) = 3.068 | 3.068 | 3.068 Mbytes
   Step          Temp          E_pair         E_mol          TotEng         Press     
     50000   3.0908255      1.5515604      0              4.6346588      30.568055    
     50500   2.9753182      1.5709812      0              4.5388611      31.545608    
     51000   2.9931111      1.510931       0              4.4965593      30.331131    
     51500   2.9671379      1.5478847      0              4.5076048      30.996143    
     52000   2.9821878      1.3959347      0              4.370667       28.879245    
     52500   2.9749759      1.3545718      0              4.3221102      27.9476      
     53000   2.6677911      1.7942025      0              4.4553241      33.889032    
     53500   2.608807       1.5131969      0              4.1154818      29.669449    
     54000   2.8864612      1.4712299      0              4.3504749      29.819566    
     54500   2.9465306      1.5356313      0              4.4747956      31.347296    
     55000   2.9440346      1.5826037      0              4.5192782      31.722934    
     55500   2.7485859      1.4319397      0              4.1736541      29.663793    
     56000   2.8753135      1.4508224      0              4.3189476      28.939174    
     56500   2.9731995      1.5220389      0              4.4878054      30.351167    
     57000   3.2586441      1.5428652      0              4.7933627      31.279387    
     57500   2.7655222      1.4611656      0              4.219774       29.706044    
     58000   2.9265583      1.2414238      0              4.1606657      27.274688    
     58500   2.9237473      1.3230794      0              4.2395173      28.06273     
     59000   2.7924863      1.3800941      0              4.1655991      28.730438    
     59500   2.6547837      1.433904       0              4.0820508      28.814571    
     60000   2.6229914      1.4481655      0              4.0645994      28.735811    
     60500   2.6795768      1.4673444      0              4.1402222      29.430598    
     61000   2.7475345      1.2977178      0              4.0383835      27.014979    
     61500   2.5424467      1.3549798      0              3.8910704      28.349116    
     62000   2.7223805      1.2847054      0              4.0002799      27.235078    
     62500   2.9975508      1.3406765      0              4.3307334      28.476386    
     63000   2.7760674      1.3010976      0              4.0702248      27.429317    
     63500   2.7614682      1.190478       0              3.9450426      25.859799    
     64000   2.7987504      1.2536606      0              4.0454141      26.687368    
     64500   2.6634199      1.3559706      0              4.0127319      27.822049    
     65000   2.654911       1.293312       0              3.9415857      26.845934    
     65500   2.6868229      1.1421623      0              3.8222682      24.987619    
     66000   2.6488848      1.2234575      0              3.8657201      26.147344    
     66500   2.5947201      1.2932663      0              3.8814996      27.300144    
     67000   2.7353273      1.1925812      0              3.9210703      26.52251     
     67500   2.6363015      1.4926538      0              4.1223645      29.993826    
     68000   2.4608442      1.2119622      0              3.6666543      25.322106    
     68500   2.4460856      1.223378       0              3.6633484      26.132311    
     69000   2.3728587      1.226815       0              3.5937415      24.94509     
     69500   2.4252588      1.3472251      0              3.7664207      27.909862    
     70000   2.3699609      1.3405584      0              3.7045944      27.67209     
     70500   2.533115       1.1282144      0              3.6549966      25.812668    
     71000   2.4208001      1.1576898      0              3.5724379      25.0937      
     71500   2.402273       1.1655986      0              3.5618659      24.665877    
     72000   2.3968865      1.3161251      0              3.7070193      27.321715    
     72500   2.3911884      1.2796143      0              3.6648247      26.792844    
     73000   2.4851787      1.0749008      0              3.5538666      24.243782    
     73500   2.3031155      1.1557008      0              3.4530586      24.98636     
     74000   2.4193919      1.0920298      0              3.5053733      24.987865    
     74500   2.3464251      1.1036144      0              3.4441735      24.39079     
     75000   2.2487533      1.1294682      0              3.3725996      24.746721    
     75500   2.2173727      1.1098734      0              3.3217027      24.149194    
     76000   2.09697        1.0788406      0              3.1705683      23.405445    
     76500   2.1050923      1.0385045      0              3.1383341      23.314155    
     77000   2.2222485      0.9342598      0              3.1509526      21.892048    
     77500   2.0488904      0.88046816     0              2.9242363      20.522269    
     78000   2.0642371      0.96562192     0              3.0246984      22.370156    
     78500   2.1421334      0.96860452     0              3.1053826      22.256679    
     79000   2.143608       1.0662617      0              3.2045107      23.243876    
     79500   2.1396803      0.99736394     0              3.1316951      22.618203    
     80000   2.1090417      0.95646426     0              3.0602333      22.03624     
     80500   1.974652       0.99089701     0              2.9606123      21.863695    
     81000   2.0179499      0.92562625     0              2.9385313      21.512072    
     81500   1.9409637      0.93694955     0              2.8730609      21.23641     
     82000   2.1111478      0.92103055     0              3.0269005      20.975157    
     82500   2.0183921      1.1281497      0              3.1414959      24.314384    
     83000   2.0547182      0.97948914     0              3.0290705      22.350539    
     83500   2.2564815      0.96646133     0              3.2173016      21.639286    
     84000   2.0744814      0.98941497     0              3.0587102      22.487349    
     84500   1.8604101      1.1590461      0              3.0148053      24.742125    
     85000   1.9037918      0.97927753     0              2.8783098      22.429589    
     85500   1.958745       0.93096999     0              2.8848181      21.309263    
     86000   1.9372154      0.89398911     0              2.8263615      20.941643    
     86500   1.7361225      0.97536491     0              2.7071471      21.400037    
     87000   1.8147289      0.77968928     0              2.5898814      19.256004    
     87500   1.9302169      0.8664119      0              2.7918032      21.074329    
     88000   1.9438149      0.93389249     0              2.8728478      21.050926    
     88500   1.7566238      0.85273816     0              2.6049704      20.141683    
     89000   1.8967634      0.76370881     0              2.6557303      18.401504    
     89500   1.9092972      0.75399497     0              2.6585189      18.879999    
     90000   1.787924       0.79268115     0              2.5761353      18.853089    
     90500   1.7135904      0.89535125     0              2.6046576      21.128356    
     91000   1.7711543      0.92740385     0              2.6941303      21.548977    
     91500   2.0056911      0.85223381     0              2.8529107      20.692349    
     92000   1.9666598      0.87678507     0              2.8385282      20.084661    
     92500   1.7800238      0.95664838     0              2.7322221      21.575939    
     93000   1.7867499      0.94981863     0              2.7321016      21.515475    
     93500   1.7390839      0.91261006     0              2.6473463      20.462722    
     94000   1.7175706      0.84752579     0              2.5608024      19.307665    
     94500   1.76099        0.66700638     0              2.4235939      16.892476    
     95000   1.6998758      0.75776032     0              2.4533864      18.560977    
     95500   1.6382814      0.8030109      0              2.4371966      18.604369    
     96000   1.5771919      0.76981916     0              2.3430681      18.643489    
     96500   1.6488606      0.63645514     0              2.2811935      15.847658    
     97000   1.6078768      0.64540243     0              2.2492595      16.476648    
     97500   1.6102984      0.53009271     0              2.1363654      14.585867    
     98000   1.5915483      0.68250289     0              2.2700723      17.116153    
     98500   1.6191148      0.67067313     0              2.2857401      17.257821    
[...]

Performance: 26395926.534 tau/day, 30550.841 timesteps/s, 12.220 Matom-step/s
99.4% CPU use with 64 MPI tasks x 1 OpenMP threads

MPI task timing breakdown:
Section |  min time  |  avg time  |  max time  |%varavg| %total
---------------------------------------------------------------
Pair    | 0.013191   | 0.014424   | 0.016446   |   0.5 |  0.88
Neigh   | 0.018604   | 0.019428   | 0.022032   |   0.4 |  1.19
Comm    | 0.68528    | 0.78462    | 0.90978    |   6.4 | 47.94
Output  | 0.0035711  | 0.0037369  | 0.0059367  |   0.5 |  0.23
Modify  | 0.29199    | 0.48       | 0.59985    |  11.4 | 29.33
Other   |            | 0.3344     |            |       | 20.43

Nlocal:           6.25 ave           8 max           5 min
Histogram: 15 0 0 25 0 0 17 0 0 7
Nghost:        19.8281 ave          25 max          16 min
Histogram: 4 5 9 8 15 11 5 4 2 1
Neighs:        16.8125 ave          23 max          10 min
Histogram: 3 3 8 7 10 7 11 5 4 6

Total # of neighbors = 1076
Ave neighs/atom = 2.69
Neighbor list builds = 16898
Dangerous builds = 0
Generated 0 of 0 mixed pair_coeff terms from geometric mixing rule
Setting up Verlet run ...
  Unit style    : lj
  Current step  : 50000
  Time step     : 0.01
Per MPI rank memory allocation (min/avg/max) = 3.068 | 3.068 | 3.068 Mbytes
   Step          Temp          E_pair         E_mol          TotEng         Press     
     50000   3.0908255      1.5515604      0              4.6346588      30.568055    
     50500   2.9753182      1.5709812      0              4.5388611      31.545608    
     51000   2.9931111      1.510931       0              4.4965593      30.331131    
     51500   2.9671379      1.5478847      0              4.5076048      30.996143    
     52000   2.9821878      1.3959347      0              4.370667       28.879245    
     52500   2.9749759      1.3545718      0              4.3221102      27.9476      
     53000   2.6677911      1.7942025      0              4.4553241      33.889032    
     53500   2.608807       1.5131969      0              4.1154818      29.669449    
     54000   2.8864612      1.4712299      0              4.3504749      29.819566    
     54500   2.9465306      1.5356313      0              4.4747956      31.347296    
     55000   2.9440346      1.5826037      0              4.5192782      31.722934    
     55500   2.7485859      1.4319397      0              4.1736541      29.663793    
     56000   2.8753135      1.4508224      0              4.3189476      28.939174    
     56500   2.9731995      1.5220389      0              4.4878054      30.351167    
     57000   3.2586441      1.5428652      0              4.7933627      31.279387    
     57500   2.7655222      1.4611656      0              4.219774       29.706044    
     58000   2.9265583      1.2414238      0              4.1606657      27.274688    
     58500   2.9237473      1.3230794      0              4.2395173      28.06273     
     59000   2.7924863      1.3800941      0              4.1655991      28.730438    
     59500   2.6547837      1.433904       0              4.0820508      28.814571    
     60000   2.6229914      1.4481655      0              4.0645994      28.735811    
     60500   2.6795768      1.4673444      0              4.1402222      29.430598    
     61000   2.7475345      1.2977178      0              4.0383835      27.014979    
     61500   2.5424467      1.3549798      0              3.8910704      28.349116    
     62000   2.7223805      1.2847054      0              4.0002799      27.235078    
     62500   2.9975508      1.3406765      0              4.3307334      28.476386    
     63000   2.7760674      1.3010976      0              4.0702248      27.429317    
     63500   2.7614682      1.190478       0              3.9450426      25.859799    
     64000   2.7987504      1.2536606      0              4.0454141      26.687368    
     64500   2.6634199      1.3559706      0              4.0127319      27.822049    
     65000   2.654911       1.293312       0              3.9415857      26.845934    
     65500   2.6868229      1.1421623      0              3.8222682      24.987619    
     66000   2.6488848      1.2234575      0              3.8657201      26.147344    
     66500   2.5947201      1.2932663      0              3.8814996      27.300144    
     67000   2.7353273      1.1925812      0              3.9210703      26.52251     
     67500   2.6363015      1.4926538      0              4.1223645      29.993826    
     68000   2.4608442      1.2119622      0              3.6666543      25.322106    
     68500   2.4460856      1.223378       0              3.6633484      26.132311    
     69000   2.3728587      1.226815       0              3.5937415      24.94509     
     69500   2.4252588      1.3472251      0              3.7664207      27.909862    
     70000   2.3699609      1.3405584      0              3.7045944      27.67209     
     70500   2.533115       1.1282144      0              3.6549966      25.812668    
     71000   2.4208001      1.1576898      0              3.5724379      25.0937      
     71500   2.402273       1.1655986      0              3.5618659      24.665877    
     72000   2.3968865      1.3161251      0              3.7070193      27.321715    
     72500   2.3911884      1.2796143      0              3.6648247      26.792844    
     73000   2.4851787      1.0749008      0              3.5538666      24.243782    
     73500   2.3031155      1.1557008      0              3.4530586      24.98636     
     74000   2.4193919      1.0920298      0              3.5053733      24.987865    
     74500   2.3464251      1.1036144      0              3.4441735      24.39079     
     75000   2.2487533      1.1294682      0              3.3725996      24.746721    
     75500   2.2173727      1.1098734      0              3.3217027      24.149194    
     76000   2.09697        1.0788406      0              3.1705683      23.405445    
     76500   2.1050923      1.0385045      0              3.1383341      23.314155    
     77000   2.2222485      0.9342598      0              3.1509526      21.892048    
     77500   2.0488904      0.88046816     0              2.9242363      20.522269    
     78000   2.0642371      0.96562192     0              3.0246984      22.370156    
     78500   2.1421334      0.96860452     0              3.1053826      22.256679    
     79000   2.143608       1.0662617      0              3.2045107      23.243876    
     79500   2.1396803      0.99736394     0              3.1316951      22.618203    
     80000   2.1090417      0.95646426     0              3.0602333      22.03624     
     80500   1.974652       0.99089701     0              2.9606123      21.863695    
     81000   2.0179499      0.92562625     0              2.9385313      21.512072    
     81500   1.9409637      0.93694955     0              2.8730609      21.23641     
     82000   2.1111478      0.92103055     0              3.0269005      20.975157    
     82500   2.0183921      1.1281497      0              3.1414959      24.314384    
     83000   2.0547182      0.97948914     0              3.0290705      22.350539    
     83500   2.2564815      0.96646133     0              3.2173016      21.639286    
     84000   2.0744814      0.98941497     0              3.0587102      22.487349    
     84500   1.8604101      1.1590461      0              3.0148053      24.742125    
     85000   1.9037918      0.97927753     0              2.8783098      22.429589    
     85500   1.958745       0.93096999     0              2.8848181      21.309263    
     86000   1.9372154      0.89398911     0              2.8263615      20.941643    
     86500   1.7361225      0.97536491     0              2.7071471      21.400037    
     87000   1.8147289      0.77968928     0              2.5898814      19.256004    
     87500   1.9302169      0.8664119      0              2.7918032      21.074329    
     88000   1.9438149      0.93389249     0              2.8728478      21.050926    
     88500   1.7566238      0.85273816     0              2.6049704      20.141683    
     89000   1.8967634      0.76370881     0              2.6557303      18.401504    
     89500   1.9092972      0.75399497     0              2.6585189      18.879999    
     90000   1.787924       0.79268115     0              2.5761353      18.853089    
     90500   1.7135904      0.89535125     0              2.6046576      21.128356    
     91000   1.7711543      0.92740385     0              2.6941303      21.548977    
     91500   2.0056911      0.85223381     0              2.8529107      20.692349    
     92000   1.9666598      0.87678507     0              2.8385282      20.084661    
     92500   1.7800238      0.95664838     0              2.7322221      21.575939    
     93000   1.7867499      0.94981863     0              2.7321016      21.515475    
     93500   1.7390839      0.91261006     0              2.6473463      20.462722    
     94000   1.7175706      0.84752579     0              2.5608024      19.307665    
     94500   1.76099        0.66700638     0              2.4235939      16.892476    
     95000   1.6998758      0.75776032     0              2.4533864      18.560977    
     95500   1.6382814      0.8030109      0              2.4371966      18.604369    
     96000   1.5771919      0.76981916     0              2.3430681      18.643489    
     96500   1.6488606      0.63645514     0              2.2811935      15.847658    
     97000   1.6078768      0.64540243     0              2.2492595      16.476648    
     97500   1.6102984      0.53009271     0              2.1363654      14.585867    
     98000   1.5915483      0.68250289     0              2.2700723      17.116153    
     98500   1.6191148      0.67067313     0              2.2857401      17.257821    
     99000   1.5852527      0.7111822      0              2.2924717      17.095352    
     99500   1.5520637      0.70620013     0              2.2543837      17.342563    
    100000   1.7016074      0.69396938     0              2.3913227      17.095179    
    100500   1.5565461      0.68467429     0              2.237329       17.07619     
    101000   1.5930607      0.6487937      0              2.2378718      16.90095     
    101500   1.4617638      0.61842774     0              2.0765372      15.606344    
    102000   1.4373465      0.55861113     0              1.9923643      15.144133    
    102500   1.3966164      0.70026886     0              2.0933937      17.153674    
    103000   1.385691       0.55524522     0              1.9374719      14.596392    
    103500   1.4615603      0.53159054     0              1.9894969      14.321968    
    104000   1.4211914      0.55023549     0              1.9678739      14.87514     
    104500   1.419114       0.51620701     0              1.9317732      14.095109    
    105000   1.3601271      0.51928881     0              1.8760156      14.239783    
    105500   1.3472359      0.4896336      0              1.8335014      13.472335    
    106000   1.3144121      0.49033386     0              1.80146        13.875677    
    106500   1.3132356      0.52372443     0              1.833677       14.157808    
    107000   1.3195336      0.53189117     0              1.848126       14.225813    
    107500   1.3296668      0.52889444     0              1.8552371      14.305885    
    108000   1.4157757      0.46454159     0              1.8767779      13.43935     
    108500   1.3343122      0.53715439     0              1.8681308      14.475376    
    109000   1.283582       0.49948727     0              1.7798604      13.734423    
    109500   1.2264897      0.52804144     0              1.751465       14.249984    
    110000   1.250069       0.56816258     0              1.8151064      14.690076    
    110500   1.3401337      0.52001871     0              1.8568021      13.975565    
    111000   1.4271142      0.48843449     0              1.9119809      13.724917    
    111500   1.2572793      0.46012175     0              1.7142579      13.10905     
    112000   1.2973266      0.38584233     0              1.6799256      11.989854    
    112500   1.2167957      0.44232436     0              1.656078       12.592042    
    113000   1.1785084      0.45334036     0              1.6289025      13.287717    
    113500   1.0894128      0.37986582     0              1.466555       11.473982    
    114000   1.050348       0.4167432      0              1.4644653      11.935075    
    114500   1.0796539      0.40679557     0              1.4837503      12.339343    
    115000   1.090527       0.41197569     0              1.4997764      12.001494    
    115500   1.0500352      0.4195648      0              1.4669749      11.794211    
    116000   1.1781951      0.36530845     0              1.540558       11.232847    
    116500   1.1720945      0.36925091     0              1.5384152      11.250744    
    117000   1.0230378      0.40302858     0              1.4235088      11.89414     
    117500   1.0291951      0.34103096     0              1.3676531      10.647207    
    118000   0.99863128     0.392801       0              1.3889357      11.646787    
    118500   0.92225941     0.37021369     0              1.2901674      10.909954    
    119000   1.0067063      0.29587379     0              1.3000633      9.5999502    
    119500   1.0501899      0.32388715     0              1.3714516      10.209243    
    120000   1.025047       0.35869457     0              1.381179       10.636624    
    120500   0.98112468     0.38182402     0              1.3604959      11.063327    
    121000   1.0089373      0.36586529     0              1.3722802      11.183818    
    121500   0.92249133     0.3692492      0              1.2894343      10.57656     
    122000   0.9497535      0.31896654     0              1.2663457      9.6368294    
    122500   0.91325377     0.33905717     0              1.2500278      10.499127    
    123000   0.85197339     0.34047115     0              1.1903146      10.499386    
    123500   0.92006426     0.31366818     0              1.2314323      9.553088     
    124000   0.84486749     0.26247549     0              1.1052308      8.9928944    
    124500   0.78686892     0.3373609      0              1.1222626      10.406463    
    125000   0.8484667      0.30695846     0              1.153304       9.7023712    
    125500   0.87090029     0.28555805     0              1.1542811      9.27311      
    126000   0.84310715     0.24229335     0              1.0832927      8.2094289    
    126500   0.77255578     0.27961066     0              1.050235       8.9487815    
    127000   0.78728217     0.26194908     0              1.047263       8.8928753    
    127500   0.80573041     0.24822722     0              1.0519433      8.5409012    
    128000   0.81710568     0.28360734     0              1.0986703      9.2233662    
    128500   0.77182698     0.22888402     0              0.99878144     7.5584045    
    129000   0.72169189     0.26038499     0              0.98027265     8.5129506    
    129500   0.72598477     0.28488516     0              1.009055       8.9398016    
    130000   0.70410075     0.22549359     0              0.92783408     7.853246     
    130500   0.72847552     0.22017853     0              0.94683286     7.714829     
    131000   0.63501129     0.2031493      0              0.83657307     7.359585     
    131500   0.63932019     0.17242316     0              0.81014505     6.5313568    
    132000   0.57937604     0.15343527     0              0.73136287     6.1168364    
    132500   0.57974689     0.17773408     0              0.75603161     6.4782382    
    133000   0.57268985     0.18094434     0              0.75220247     6.6349946    
    133500   0.58125701     0.16836975     0              0.74817362     6.3304485    
    134000   0.56170388     0.14473306     0              0.70503269     5.7726694    
    134500   0.54873978     0.15886767     0              0.70623561     6.2716053    
    135000   0.5229365      0.16248557     0              0.68411472     6.2127436    
    135500   0.5098932      0.17945871     0              0.68807717     6.7185087    
    136000   0.47969283     0.15099407     0              0.62948767     5.8835549    
    136500   0.49410371     0.14414126     0              0.6370097      5.7224662    
    137000   0.47022924     0.15577002     0              0.62482369     5.779148     
    137500   0.5007198      0.13682605     0              0.63629406     5.5238322    
    138000   0.44589098     0.14548469     0              0.59026095     5.6830592    
    138500   0.43855485     0.1450037      0              0.58246217     5.8865228    
    139000   0.43107263     0.10684726     0              0.53684221     4.642204     
    139500   0.3901773      0.10660021     0              0.49580207     4.6738936    
    140000   0.3851752      0.11203282     0              0.49624509     4.8169481    
    140500   0.34121551     0.097443713    0              0.43780619     4.4989839    
    141000   0.36725443     0.088226187    0              0.45456248     4.1151044    
    141500   0.35453467     0.076865739    0              0.43051407     3.7267542    
    142000   0.30013246     0.07563344     0              0.37501557     3.6928948    
    142500   0.30423981     0.085034891    0              0.3885141      3.7842086    
    143000   0.29747388     0.079037959    0              0.37576815     3.8613761    
    143500   0.27938209     0.077591204    0              0.35627484     3.7667764    
    144000   0.26202611     0.073422213    0              0.33479325     3.6763116    
    144500   0.2531228      0.050726187    0              0.30321618     2.8792398    
    145000   0.2489617      0.053124522    0              0.30146382     3.0034999    
    145500   0.25002296     0.055343242    0              0.30474115     2.9129289    
    146000   0.21637166     0.056646617    0              0.27247735     3.0759723    
    146500   0.2143326      0.046816936    0              0.2606137      2.6521061    
    147000   0.18118782     0.036227981    0              0.21696283     2.2449358    
    147500   0.16719777     0.044342614    0              0.21112239     2.4861804    
    148000   0.15390057     0.032741435    0              0.18625725     2.0488349    
    148500   0.14766491     0.025689444    0              0.17298519     1.8206764    
    149000   0.13508686     0.024491629    0              0.15924077     1.7470486    
    149500   0.11587048     0.021970984    0              0.13755179     1.6269152    
    150000   0.11099038     0.019223969    0              0.12993688     1.4460338    
Loop time of 2.98295 on 64 procs for 100000 steps with 400 atoms

Performance: 28964572.667 tau/day, 33523.811 timesteps/s, 13.410 Matom-step/s
99.4% CPU use with 64 MPI tasks x 1 OpenMP threads

MPI task timing breakdown:
Section |  min time  |  avg time  |  max time  |%varavg| %total
---------------------------------------------------------------
Pair    | 0.024378   | 0.02645    | 0.029585   |   0.7 |  0.89
Neigh   | 0.025593   | 0.026802   | 0.029373   |   0.4 |  0.90
Comm    | 1.1188     | 1.3286     | 1.5562     |  10.0 | 44.54
Output  | 0.1223     | 0.12251    | 0.12424    |   0.1 |  4.11
Modify  | 0.47872    | 0.84876    | 1.0871     |  17.0 | 28.45
Other   |            | 0.6299     |            |       | 21.12

Nlocal:           6.25 ave           8 max           4 min
Histogram: 2 0 15 0 0 20 0 19 0 8
Nghost:        19.9062 ave          24 max          16 min
Histogram: 1 6 10 11 0 13 9 6 6 2
Neighs:          18.25 ave          25 max          12 min
Histogram: 4 4 6 14 6 4 17 3 2 4

Total # of neighbors = 1168
Ave neighs/atom = 2.92
Neighbor list builds = 23985
Dangerous builds = 0
Total wall time: 0:00:04
