LAMMPS (15 Sep 2022)
OMP_NUM_THREADS environment is not set. Defaulting to 1 thread. (src/comm.cpp:98)
  using 1 OpenMP thread(s) per MPI task
Lattice spacing in x,y,z = 1.7099759 1.7099759 1.7099759
Created orthogonal box = (0 0 0) to (13.679808 13.679808 13.679808)
  4 by 4 by 4 MPI processor grid
Created 2048 atoms
  using lattice units in orthogonal box = (0 0 0) to (13.679808 13.679808 13.679808)
  create_atoms CPU = 0.001 seconds
Generated 0 of 0 mixed pair_coeff terms from geometric mixing rule
Neighbor list info ...
  update: every = 1 steps, delay = 0 steps, check = yes
  max neighbors/atom: 2000, page size: 100000
  master list distance cutoff = 1.3
  ghost atom cutoff = 1.3
  binsize = 0.65, bins = 22 22 22
  1 neighbor lists, perpetual/occasional/extra = 1 0 0
  (1) pair lj/cut, perpetual
      attributes: half, newton on
      pair build: half/bin/atomonly/newton
      stencil: half/bin/3d
      bin: standard
Setting up Verlet run ...
  Unit style    : lj
  Current step  : 0
  Time step     : 0.01
Per MPI rank memory allocation (min/avg/max) = 3.064 | 3.064 | 3.064 Mbytes
   Step          Temp          E_pair         E_mol          TotEng         Press     
         0   3              0              0              4.4978027      2.3988281    
       500   3.010846       0.99986665     0              5.5139304      12.704599    
      1000   3.0354224      0.94372205     0              5.4946324      12.08606     
      1500   3.0030266      0.9142963      0              5.4166367      11.721566    
      2000   2.9367516      0.94476392     0              5.3477404      12.082946    
      2500   2.9676562      0.95965609     0              5.4089669      12.003354    
      3000   2.9736829      1.008503       0              5.4668494      12.465826    
      3500   2.9826198      1.0111843      0              5.4829295      12.583071    
      4000   2.9378161      1.0626843      0              5.4672567      12.961899    
      4500   3.021391       0.9416354      0              5.471509       12.123323    
      5000   3.0110098      0.99210925     0              5.5064186      12.544048    
      5500   2.9983019      1.0888983      0              5.584155       12.932142    
      6000   3.01164        1.0346177      0              5.549872       12.487587    
      6500   3.0291419      1.012141       0              5.5536352      12.552724    
      7000   3.1431913      0.94576176     0              5.6582465      12.251599    
      7500   3.0487338      0.99454299     0              5.5654108      12.549662    
      8000   3.026121       1.0199492      0              5.5569144      12.581301    
      8500   2.9706845      0.96348306     0              5.417334       12.125974    
      9000   2.9123465      0.904243       0              5.2706297      11.702726    
      9500   2.923128       1.0129852      0              5.3955361      12.554146    
     10000   2.9181707      1.0416579      0              5.4167767      12.638865    
     10500   2.9136202      1.021544       0              5.3898403      12.568039    
     11000   2.9956859      0.9591947      0              5.4505295      12.2115      
     11500   3.0191408      0.97675279     0              5.5032527      12.228079    
     12000   3.0551357      0.96520436     0              5.5456702      12.077468    
     12500   3.0032656      1.0501921      0              5.5528908      12.809216    
     13000   3.0610497      1.0174662      0              5.6067987      12.727366    
     13500   3.0407601      1.0217068      0              5.5806198      12.680351    
     14000   3.0371191      1.0301569      0              5.5836111      12.810425    
     14500   3.0200162      0.94183434     0              5.4696466      12.041677    
     15000   3.0173111      0.99665134     0              5.5204081      12.399768    
     15500   3.0744799      1.0148344      0              5.6243024      12.700687    
     16000   3.0498657      0.98066204     0              5.5532268      12.416032    
     16500   2.9122744      1.0044882      0              5.3707667      12.430651    
     17000   2.9669712      0.93833244     0              5.3866162      12.067655    
     17500   2.8670205      1.0063989      0              5.3048298      12.342148    
     18000   3.0173812      0.90919665     0              5.4330584      11.765143    
     18500   2.9560075      0.97830495     0              5.4101512      12.36073     
     19000   2.9518962      1.0003788      0              5.4260611      12.30541     
     19500   2.957604       0.938392       0              5.3726317      12.055497    
     20000   2.9414777      1.0113431      0              5.4214052      12.509608    
     20500   3.008126       0.949234       0              5.4592198      12.059484    
     21000   2.9023819      0.96443149     0              5.3158786      12.009823    
     21500   2.9625913      0.92054765     0              5.3622647      11.826776    
     22000   3.0109459      0.95721979     0              5.4714334      12.193913    
     22500   2.9885334      1.0320171      0              5.5126283      12.729416    
     23000   3.0209905      1.0081675      0              5.5374407      12.563987    
     23500   3.0555995      1.0242203      0              5.6053816      12.754943    
     24000   3.0672354      0.97350643     0              5.5721131      12.458151    
     24500   3.0127424      0.98708774     0              5.5039947      12.52772     
     25000   2.9107944      1.0223443      0              5.3864039      12.512116    
     25500   2.968232       0.98030177     0              5.4304758      12.348862    
     26000   3.0051357      0.98512617     0              5.4906287      12.379887    
     26500   3.0022478      0.9682765      0              5.4694493      12.424005    
     27000   3.038256       1.003338       0              5.5584966      12.532237    
     27500   3.0080967      0.92400351     0              5.4339454      11.866967    
     28000   2.9883855      0.93336949     0              5.4137589      11.943866    
     28500   2.9596895      0.91009749     0              5.347464       11.743588    
     29000   2.9573895      0.97013588     0              5.4040541      12.3859      
     29500   2.99328        0.96120784     0              5.4489356      12.154766    
     30000   3.0193715      0.95975716     0              5.486603       12.099721    
     30500   3.0160566      0.95981588     0              5.4816917      12.225294    
     31000   3.0208902      1.0064845      0              5.5356073      12.506731    
     31500   3.0647342      0.97686054     0              5.5717172      12.286454    
     32000   3.1106387      0.89314169     0              5.5568215      11.729605    
     32500   2.9589149      0.96327987     0              5.3994851      12.096126    
     33000   2.9945282      0.9592873      0              5.4488864      12.168158    
     33500   2.9913705      0.91672112     0              5.4015859      11.760675    
     34000   3.0032758      0.9429049      0              5.4456189      12.021297    
     34500   3.0039063      0.95458297     0              5.4582423      12.097934    
     35000   2.9511113      1.0222688      0              5.4467744      12.597321    
     35500   3.0103438      1.0532356      0              5.5665465      12.865106    
     36000   3.0158912      0.98127934     0              5.5029073      12.373868    
     36500   2.98716        1.0635189      0              5.5420711      12.883101    
     37000   2.950312       0.95297502     0              5.3762821      12.107996    
     37500   3.0033573      0.96552836     0              5.4683646      12.343311    
     38000   3.0205077      1.0071385      0              5.5356878      12.493302    
     38500   2.9406643      0.9273123      0              5.3361549      11.997347    
     39000   2.9850703      0.95977288     0              5.4351919      12.297276    
     39500   2.9681048      0.98594833     0              5.4359317      12.428772    
     40000   3.0808381      0.92336315     0              5.5423639      11.951173    
     40500   3.0090783      1.0329412      0              5.5443547      12.751965    
     41000   3.0282662      0.97235847     0              5.5125397      12.286496    
     41500   3.0566844      1.04982        0              5.6326078      12.967097    
     42000   3.1589732      0.98612625     0              5.7222724      12.448057    
     42500   2.993327       1.0070175      0              5.4948156      12.537891    
     43000   2.994789       1.0618079      0              5.551798       12.885061    
     43500   2.9986286      0.95039541     0              5.4461421      12.180514    
     44000   2.9524356      0.9765376      0              5.4030286      12.330034    
     44500   2.9258958      0.95153733     0              5.338238       12.114054    
     45000   2.9754421      0.94798783     0              5.4089717      12.214317    
     45500   3.010044       0.95228769     0              5.465149       12.110797    
     46000   2.9950805      0.99590023     0              5.4863273      12.530566    
     46500   3.0207285      1.0155673      0              5.5444476      12.564124    
     47000   3.0340922      0.89325439     0              5.4421704      11.616421    
     47500   2.9837353      0.93600874     0              5.4094263      12.017123    
     48000   3.0430417      0.92623627     0              5.48857        11.895571    
     48500   3.0584095      1.0348873      0              5.6202614      12.906049    
     49000   2.9631562      0.96286057     0              5.4054246      12.185548    
     49500   2.9676729      0.97389746     0              5.4232332      12.38859     
     50000   3.0206811      0.96169363     0              5.4905028      12.2376      
Loop time of 2.84593 on 64 procs for 50000 steps with 2048 atoms

Performance: 15179577.946 tau/day, 17568.956 timesteps/s, 35.981 Matom-step/s
99.6% CPU use with 64 MPI tasks x 1 OpenMP threads

MPI task timing breakdown:
Section |  min time  |  avg time  |  max time  |%varavg| %total
---------------------------------------------------------------
Pair    | 0.05437    | 0.061157   | 0.072962   |   1.5 |  2.15
Neigh   | 0.28497    | 0.29119    | 0.32359    |   0.9 | 10.23
Comm    | 1.459      | 1.6289     | 1.8032     |   6.4 | 57.24
Output  | 0.0038635  | 0.0040632  | 0.0049357  |   0.3 |  0.14
Modify  | 0.20433    | 0.50878    | 0.66932    |  16.6 | 17.88
Other   |            | 0.3518     |            |       | 12.36

Nlocal:             32 ave          37 max          25 min
Histogram: 2 3 2 2 11 13 12 8 5 6
Nghost:        139.906 ave         151 max         129 min
Histogram: 4 4 5 6 12 15 3 7 3 5
Neighs:        117.969 ave         151 max          84 min
Histogram: 2 5 3 8 15 10 8 7 3 3

Total # of neighbors = 7550
Ave neighs/atom = 3.6865234
Neighbor list builds = 20184
Dangerous builds = 0
Generated 0 of 0 mixed pair_coeff terms from geometric mixing rule
Setting up Verlet run ...
  Unit style    : lj
  Current step  : 50000
  Time step     : 0.01
Per MPI rank memory allocation (min/avg/max) = 3.106 | 3.106 | 3.106 Mbytes
   Step          Temp          E_pair         E_mol          TotEng         Press     
     50000   3.0206811      0.96169363     0              5.4905028      12.2376      
     50500   3.0045697      1.0190946      0              5.5237486      12.613899    
     51000   3.1075892      0.99546154     0              5.6545693      12.562548    
     51500   2.9648749      1.0120803      0              5.4572212      12.474822    
     52000   2.9457042      1.0444403      0              5.4608391      12.763743    
     52500   2.9953318      0.93997444     0              5.4307782      12.042567    
     53000   2.9771567      0.96132243     0              5.4248769      12.164526    
     53500   2.938699       0.94895021     0              5.3548463      12.010668    
     54000   2.8496316      0.94620207     0              5.2185624      11.904961    
     54500   2.8717289      0.94844207     0              5.2539321      11.999748    
     55000   2.9175882      0.95061415     0              5.3248595      11.919608    
     55500   2.9117361      0.92651235     0              5.2919838      11.8358      
     56000   2.9276807      0.93877179     0              5.3281485      11.898102    
     56500   2.8456322      0.89360102     0              5.1599652      11.578687    
     57000   2.7891451      0.94372864     0              5.1254035      11.920821    
     57500   2.7289215      0.94891656     0              5.0403001      11.935728    
     58000   2.7757463      0.88861054     0              5.050197       11.50664     
     58500   2.829852       0.89059423     0              5.1332997      11.505463    
     59000   2.7365748      0.85167138     0              4.9545293      11.023054    
     59500   2.6669215      0.89933639     0              4.8977653      11.449689    
     60000   2.5902958      0.90359517     0              4.7871416      11.484522    
     60500   2.6414883      0.91022569     0              4.8705234      11.528761    
     61000   2.5455697      0.78947331     0              4.6059634      10.653132    
     61500   2.6341434      0.84315729     0              4.7924431      10.889613    
     62000   2.6873986      0.758285       0              4.7874146      10.387909    
     62500   2.6109879      0.79592487     0              4.7104944      10.641629    
     63000   2.6412542      0.84172088     0              4.8016677      11.028023    
     63500   2.5836793      0.89468019     0              4.7683068      11.375724    
     64000   2.610003       0.83645902     0              4.7495518      11.080265    
     64500   2.6146377      0.86431624     0              4.7843578      11.151186    
     65000   2.6924867      0.80942813     0              4.8461862      10.802693    
     65500   2.5587519      0.77302768     0              4.6092814      10.481757    
     66000   2.5794657      0.73436372     0              4.601673       10.238928    
     66500   2.530985       0.83715067     0              4.6317745      10.941165    
     67000   2.5492709      0.79683501     0              4.6188742      10.6955      
     67500   2.5595494      0.73329797     0              4.5707473      10.052265    
     68000   2.5441836      0.7536169      0              4.5680289      10.28134     
     68500   2.5400398      0.83133827     0              4.6395376      10.853028    
     69000   2.4499202      0.75399546     0              4.4270814      10.189399    
     69500   2.4168854      0.7888759      0              4.4124339      10.355642    
     70000   2.4534129      0.76864477     0              4.4469672      10.313576    
     70500   2.4286644      0.73996752     0              4.3811853      10.086706    
     71000   2.4237149      0.73916575     0              4.3729629      10.212862    
     71500   2.4101492      0.72842491     0              4.3418834      9.8787492    
     72000   2.3717473      0.7560419      0              4.3119257      10.154766    
     72500   2.4242005      0.7031478      0              4.337673       9.7514887    
     73000   2.3994699      0.68388399     0              4.2813314      9.6264805    
     73500   2.3222887      0.74369935     0              4.2254315      10.204561    
     74000   2.3408172      0.71635624     0              4.2258676      9.8181469    
     74500   2.3760417      0.76384498     0              4.3261673      10.229839    
     75000   2.3497872      0.7182059      0              4.2411656      9.8304416    
     75500   2.3344546      0.69298072     0              4.1929528      9.6305337    
     76000   2.2580138      0.709877       0              4.0952439      9.7355562    
     76500   2.2116763      0.71351774     0              4.0294123      9.729804     
     77000   2.2027989      0.68170177     0              3.9842868      9.453755     
     77500   2.1672847      0.64590647     0              3.8952462      9.2187802    
     78000   2.1211219      0.67022036     0              3.8503497      9.2034789    
     78500   2.1283744      0.64306866     0              3.8340714      9.0938202    
     79000   2.133464       0.69040181     0              3.8890353      9.4964529    
     79500   2.153851       0.67847237     0              3.9076713      9.4128592    
     80000   2.1607481      0.65934696     0              3.8988865      9.1505272    
     80500   2.1559968      0.64232672     0              3.8747428      9.116434     
     81000   2.160934       0.65186251     0              3.8916808      9.0697154    
     81500   2.155236       0.62496541     0              3.8562409      8.8132632    
     82000   2.0393789      0.64825942     0              3.705834       9.0325428    
     82500   2.0272726      0.6003623      0              3.6397864      8.5493211    
     83000   2.0538534      0.59170883     0              3.6709846      8.5462576    
     83500   2.0094686      0.62082227     0              3.6335534      8.6519695    
     84000   1.9304674      0.63315484     0              3.527442       8.8209681    
     84500   2.0025158      0.59670552     0              3.5990125      8.5379859    
     85000   1.9963985      0.62748792     0              3.6206234      8.9561631    
     85500   1.9767548      0.59731532     0              3.5609997      8.492661     
     86000   1.9914445      0.60207726     0              3.5877854      8.6774306    
     86500   2.077416       0.57506259     0              3.6896651      8.4630025    
     87000   1.9384094      0.58298519     0              3.4891796      8.3634818    
     87500   1.9292413      0.58558655     0              3.4780355      8.440561     
     88000   1.9461287      0.56529479     0              3.4830624      8.2212722    
     88500   1.8988347      0.60376743     0              3.4506288      8.5682096    
     89000   1.8850225      0.55715899     0              3.3833121      8.1302054    
     89500   1.8974364      0.55101132     0              3.3957762      8.1595885    
     90000   1.8767502      0.60780772     0              3.4215584      8.5337001    
     90500   1.8637652      0.59157181     0              3.3858545      8.4756549    
     91000   1.8666736      0.52012468     0              3.3187679      7.8792994    
     91500   1.7819396      0.56581439     0              3.2374186      8.0345024    
     92000   1.7477877      0.57575073     0              3.1961522      8.2253688    
     92500   1.7541659      0.54913539     0              3.1790995      8.1366521    
     93000   1.7568282      0.5444214      0              3.178377       7.9438494    
     93500   1.7705024      0.51190038     0              3.1663572      7.7296253    
     94000   1.7810632      0.51803923     0              3.1883295      7.7064101    
     94500   1.7320876      0.52283096     0              3.1196938      7.7059539    
     95000   1.686211       0.47985404     0              3.0079355      7.2814448    
     95500   1.6616328      0.4749026      0              2.9661348      7.3206918    
     96000   1.6384428      0.47477478     0              2.9312389      7.3017422    
     96500   1.6499637      0.47321554     0              2.9469527      7.2913805    
     97000   1.6393142      0.44166602     0              2.8994366      7.0089068    
     97500   1.6043832      0.4572925      0              2.8626923      7.0347823    
     98000   1.5691942      0.47197207     0              2.824614       7.1169638    
     98500   1.5874214      0.42457348     0              2.8045429      6.7646949    
     99000   1.5684188      0.41819694     0              2.7696764      6.7773308    
     99500   1.5481464      0.46767197     0              2.7887577      7.1493375    
    100000   1.5215923      0.46972662     0              2.7510007      7.10335      
    100500   1.5625444      0.42112798     0              2.7638001      6.6393787    
    101000   1.5318541      0.42228458     0              2.7189438      6.6738112    
    101500   1.5110748      0.42234579     0              2.6878513      6.6063947    
    102000   1.455261       0.40385422     0              2.5856798      6.4640758    
    102500   1.4767416      0.40230865     0              2.6163395      6.3841914    
    103000   1.459733       0.39855197     0              2.5870823      6.4128602    
    103500   1.4151833      0.41550882     0              2.5372473      6.5091052    
    104000   1.4299858      0.41112755     0              2.5550588      6.5186391    
    104500   1.4152051      0.41801239     0              2.5397835      6.5108258    
    105000   1.4216753      0.39198835     0              2.52346        6.413007     
    105500   1.4209059      0.42494813     0              2.5552663      6.6661879    
    106000   1.4389773      0.3898535      0              2.5472655      6.3427606    
    106500   1.4057298      0.37201225     0              2.4795774      6.1517603    
    107000   1.3731586      0.39371143     0              2.4524436      6.347447     
    107500   1.3436034      0.34986186     0              2.3642829      5.8242354    
    108000   1.2915056      0.35967315     0              2.2959857      5.894003     
    108500   1.2654327      0.36454159     0              2.2617639      5.9057237    
    109000   1.2940183      0.34564586     0              2.2857256      5.8323303    
    109500   1.2712907      0.36099315     0              2.2669981      5.9542162    
    110000   1.2776571      0.33610622     0              2.2516561      5.6096821    
    110500   1.2645876      0.35007932     0              2.2460345      5.8194333    
    111000   1.2200049      0.33327194     0              2.1623857      5.6019323    
    111500   1.1900091      0.3254035      0              2.1095455      5.5233819    
    112000   1.1697416      0.31405298     0              2.0678087      5.3196608    
    112500   1.1508304      0.29431791     0              2.0197207      5.1974786    
    113000   1.1663667      0.30795711     0              2.0566529      5.3398684    
    113500   1.1562202      0.32963881     0              2.0631223      5.5028471    
    114000   1.1573824      0.31551557     0              2.0507415      5.2857852    
    114500   1.1403007      0.31593735     0              2.0255533      5.4169458    
    115000   1.1216431      0.32120574     0              2.0028489      5.4115051    
    115500   1.1115363      0.29550156     0              1.9619918      5.1978445    
    116000   1.0759113      0.26691309     0              1.879992       4.7784713    
    116500   1.081426       0.27741892     0              1.8987659      4.9161157    
    117000   1.0482927      0.28142369     0              1.8530949      4.970238     
    117500   1.0271854      0.27794078     0              1.8179665      4.830435     
    118000   1.0242825      0.26158407     0              1.7972576      4.7750344    
    118500   0.99791001     0.26742607     0              1.7635602      4.819918     
    119000   1.0039113      0.26098275     0              1.7661145      4.7225231    
    119500   0.99178571     0.25153161     0              1.7384838      4.5364504    
    120000   0.99627218     0.26369815     0              1.7573767      4.7008434    
    120500   0.98244875     0.25739274     0              1.7303463      4.6552876    
    121000   0.94677931     0.26165984     0              1.6811354      4.718765     
    121500   0.95192064     0.24147916     0              1.6686629      4.4885383    
    122000   0.92394129     0.24549692     0              1.6307321      4.4766909    
    122500   0.88285726     0.25319439     0              1.5768337      4.4839563    
    123000   0.87755286     0.22003681     0              1.5357234      4.1368526    
    123500   0.87843011     0.21548227     0              1.5324841      4.1139826    
    124000   0.86042968     0.22698479     0              1.5169991      4.2134264    
    124500   0.86457835     0.22082377     0              1.5170581      4.1427008    
    125000   0.83465225     0.2065129      0              1.45788        4.0195357    
    125500   0.8168907      0.19438045     0              1.4191182      3.8729135    
    126000   0.78114869     0.18952736     0              1.3606783      3.7546608    
    126500   0.77689827     0.18578724     0              1.3505656      3.6983864    
    127000   0.7589002      0.19837547     0              1.3361699      3.849597     
    127500   0.7322659      0.19821654     0              1.2960791      3.8141568    
    128000   0.73392372     0.16443792     0              1.264786       3.3683693    
    128500   0.72137562     0.15709411     0              1.2386292      3.3530613    
    129000   0.70763212     0.16736455     0              1.2282944      3.4486663    
    129500   0.69413336     0.18065092     0              1.2213426      3.5863518    
    130000   0.68279106     0.16256043     0              1.1862469      3.3060131    
    130500   0.69589276     0.15286796     0              1.1961974      3.2818134    
    131000   0.64539955     0.15522951     0              1.1228561      3.229602     
    131500   0.64823957     0.13785051     0              1.1097351      3.0903252    
    132000   0.62197141     0.1491754      0              1.081677       3.1444926    
    132500   0.62734792     0.15026417     0              1.0908266      3.2248856    
    133000   0.60674647     0.12352679     0              1.0332021      2.7914489    
    133500   0.58877429     0.14432622     0              1.0270564      3.0182403    
    134000   0.57358812     0.12846866     0              0.98843073     2.8114135    
    134500   0.57559351     0.12301431     0              0.985983       2.7434016    
    135000   0.53944011     0.12465421     0              0.93341927     2.779009     
    135500   0.51707465     0.12491667     0              0.90014993     2.7350252    
    136000   0.49156152     0.11765557     0              0.85463782     2.6666366    
    136500   0.48406284     0.10838215     0              0.83412187     2.5520452    
    137000   0.4870746      0.094123139    0              0.82437829     2.3108675    
    137500   0.46911519     0.097744686    0              0.80107388     2.335704     
    138000   0.4548183      0.090399197    0              0.77229352     2.2699812    
    138500   0.44999052     0.083324236    0              0.75798043     2.1056327    
    139000   0.41299679     0.088951074    0              0.70814376     2.1802831    
    139500   0.40338993     0.075118903    0              0.67990834     1.988008     
    140000   0.38476375     0.079881634    0              0.65674545     2.0520208    
    140500   0.37266761     0.07378043     0              0.6325089      1.9484846    
    141000   0.35709377     0.071716836    0              0.60709594     1.9077227    
    141500   0.34711165     0.064717575    0              0.58513082     1.7468441    
    142000   0.34122128     0.059387552    0              0.57096955     1.6855571    
    142500   0.31782245     0.051366559    0              0.52786745     1.5161147    
    143000   0.30003133     0.054084154    0              0.5039114      1.5862892    
    143500   0.28814897     0.054223788    0              0.48623619     1.5531939    
    144000   0.27890764     0.044500043    0              0.46265723     1.3620647    
    144500   0.27306668     0.050703241    0              0.46010326     1.4898127    
    145000   0.24448227     0.042916196    0              0.40946054     1.3290393    
    145500   0.24167156     0.041188058    0              0.40351839     1.2950912    
    146000   0.21521773     0.034378161    0              0.35704713     1.1534696    
    146500   0.2091241      0.036214667    0              0.34974764     1.1569916    
    147000   0.18638017     0.029394946    0              0.30882869     1.0363093    
    147500   0.1801223      0.02640348     0              0.29645501     0.97003876   
    148000   0.15662386     0.023383665    0              0.25820473     0.87936017   
    148500   0.15124097     0.020553435    0              0.24730411     0.80695197   
    149000   0.12837801     0.018583814    0              0.2110568      0.74778108   
    149500   0.11691354     0.014158659    0              0.18944333     0.61943719   
    150000   0.10100881     0.013642269    0              0.16508151     0.60246756   
Loop time of 5.33292 on 64 procs for 100000 steps with 2048 atoms

Performance: 16201248.161 tau/day, 18751.445 timesteps/s, 38.403 Matom-step/s
99.6% CPU use with 64 MPI tasks x 1 OpenMP threads

MPI task timing breakdown:
Section |  min time  |  avg time  |  max time  |%varavg| %total
---------------------------------------------------------------
Pair    | 0.097825   | 0.1102     | 0.13196    |   2.1 |  2.07
Neigh   | 0.40174    | 0.41077    | 0.45643    |   1.1 |  7.70
Comm    | 2.6346     | 2.9612     | 3.316      |   9.7 | 55.53
Output  | 0.1356     | 0.13608    | 0.13789    |   0.1 |  2.55
Modify  | 0.40265    | 1.0179     | 1.3468     |  23.9 | 19.09
Other   |            | 0.6968     |            |       | 13.07

Nlocal:             32 ave          39 max          27 min
Histogram: 7 0 12 12 8 14 6 2 2 1
Nghost:        141.016 ave         151 max         130 min
Histogram: 3 1 5 10 12 10 9 7 1 6
Neighs:        123.578 ave         157 max          96 min
Histogram: 3 4 6 15 11 10 9 2 3 1

Total # of neighbors = 7909
Ave neighs/atom = 3.8618164
Neighbor list builds = 28404
Dangerous builds = 0
Total wall time: 0:00:08
LAMMPS (15 Sep 2022)
OMP_NUM_THREADS environment is not set. Defaulting to 1 thread. (src/comm.cpp:98)
  using 1 OpenMP thread(s) per MPI task
Lattice spacing in x,y,z = 1.6441414 1.6441414 1.6441414
Created orthogonal box = (0 0 0) to (13.153131 13.153131 13.153131)
  4 by 4 by 4 MPI processor grid
Created 2048 atoms
  using lattice units in orthogonal box = (0 0 0) to (13.153131 13.153131 13.153131)
  create_atoms CPU = 0.001 seconds
Generated 0 of 0 mixed pair_coeff terms from geometric mixing rule
Neighbor list info ...
  update: every = 1 steps, delay = 0 steps, check = yes
  max neighbors/atom: 2000, page size: 100000
  master list distance cutoff = 1.3
  ghost atom cutoff = 1.3
  binsize = 0.65, bins = 21 21 21
  1 neighbor lists, perpetual/occasional/extra = 1 0 0
  (1) pair lj/cut, perpetual
      attributes: half, newton on
      pair build: half/bin/atomonly/newton
      stencil: half/bin/3d
      bin: standard
Setting up Verlet run ...
  Unit style    : lj
  Current step  : 0
  Time step     : 0.01
Per MPI rank memory allocation (min/avg/max) = 3.063 | 3.063 | 3.063 Mbytes
   Step          Temp          E_pair         E_mol          TotEng         Press     
         0   3              0              0              4.4978027      2.6986816    
       500   3.0714689      1.4128243      0              6.017778       18.369294    
      1000   3.0790617      1.365454       0              5.9817914      17.967101    
      1500   3.0273666      1.3574655      0              5.896298       17.757337    
      2000   3.0680143      1.4050804      0              6.0048548      18.283537    
      2500   2.9098009      1.4557682      0              5.8183384      18.527445    
      3000   3.067614       1.3515503      0              5.9507245      17.932634    
      3500   2.983017       1.3543425      0              5.8266832      17.866688    
      4000   3.0230711      1.3655706      0              5.8979631      17.897668    
      4500   3.0255638      1.3557181      0              5.8918479      17.735913    
      5000   3.0919325      1.33662        0              5.9722541      17.882654    
      5500   2.9724204      1.3417794      0              5.7982329      17.861169    
      6000   3.0152216      1.3226739      0              5.8432979      17.654041    
      6500   3.067318       1.2775944      0              5.8763248      17.235034    
      7000   3.1034149      1.2793571      0              5.9322065      17.345615    
      7500   3.0999441      1.2706538      0              5.9182994      17.240739    
      8000   2.9706926      1.314725       0              5.7685882      17.560721    
      8500   2.9259094      1.2913466      0              5.6780677      17.131957    
      9000   3.0001511      1.2403843      0              5.7384135      16.970046    
      9500   2.9646368      1.3065966      0              5.7513804      17.411008    
     10000   2.982816       1.3422262      0              5.8142655      17.590242    
     10500   2.8523846      1.3059513      0              5.5824391      17.645884    
     11000   2.9573794      1.3764578      0              5.8103608      18.071039    
     11500   2.9553479      1.4053909      0              5.8362482      18.183144    
     12000   3.0386998      1.3725239      0              5.9283481      18.247746    
     12500   2.9816325      1.3993324      0              5.8695974      18.209501    
     13000   3.042923       1.3322874      0              5.8944432      17.793159    
     13500   2.8984299      1.2800559      0              5.6255779      17.193272    
     14000   2.9624971      1.3046974      0              5.7462733      17.394082    
     14500   2.9628917      1.2744907      0              5.7166582      17.191758    
     15000   3.0200949      1.2913299      0              5.8192603      17.444479    
     15500   3.0099642      1.3737617      0              5.8865035      18.099366    
     16000   3.0151461      1.3563464      0              5.8768571      17.894374    
     16500   3.1200622      1.3377379      0              6.015546       17.88511     
     17000   2.9762768      1.2822728      0              5.7445082      17.375728    
     17500   3.0300259      1.3095174      0              5.852337       17.38991     
     18000   2.9108934      1.3746975      0              5.7389057      18.041666    
     18500   2.9387779      1.3272674      0              5.7332819      17.727612    
     19000   2.989465       1.2744072      0              5.7564152      17.015079    
     19500   2.9704745      1.3597933      0              5.8133295      18.12403     
     20000   3.0210066      1.3130693      0              5.8423666      17.606743    
     20500   3.0910265      1.2934623      0              5.9277381      17.515356    
     21000   3.0757735      1.3776788      0              5.9890863      18.059241    
     21500   3.0593672      1.3694222      0              5.9562322      17.937345    
     22000   2.9429785      1.3494953      0              5.7618076      17.763986    
     22500   2.9107024      1.3117516      0              5.6756734      17.414372    
     23000   2.9316946      1.3496087      0              5.7450033      17.734514    
     23500   2.8729954      1.2714433      0              5.5788321      16.911179    
     24000   2.973018       1.3213847      0              5.7787342      17.553062    
     24500   2.972358       1.3277339      0              5.7840939      17.754947    
     25000   3.0285509      1.3640291      0              5.9046372      17.830399    
     25500   3.0122214      1.3256229      0              5.8417487      17.763408    
     26000   3.1270757      1.2993712      0              5.9876943      17.784157    
     26500   2.9898645      1.3891971      0              5.871804       18.096159    
     27000   3.1111495      1.2824728      0              5.9469184      17.56977     
     27500   2.9818724      1.2853148      0              5.7559395      17.336806    
     28000   3.0147188      1.2747928      0              5.794663       17.267726    
     28500   3.013355       1.3471988      0              5.8650243      17.878127    
     29000   3.0567958      1.3236758      0              5.9066306      17.688278    
     29500   2.9917673      1.4215946      0              5.9070544      18.432096    
     30000   2.9411515      1.3032257      0              5.7127988      17.199934    
     30500   2.9766242      1.3291103      0              5.7918664      17.665579    
     31000   2.9671475      1.337042       0              5.7855901      17.669073    
     31500   3.0252394      1.3684341      0              5.9040775      18.048029    
     32000   3.0412389      1.433033       0              5.9926639      18.561077    
     32500   3.0066084      1.3744743      0              5.8821847      18.075062    
     33000   3.0526632      1.3642603      0              5.9410192      17.908669    
     33500   3.0115649      1.3666083      0              5.8817499      18.046188    
     34000   2.9824932      1.355607       0              5.8271624      17.781552    
     34500   2.9395705      1.4058654      0              5.8130681      18.223749    
     35000   2.9593239      1.3145405      0              5.7513588      17.357364    
     35500   2.9703398      1.3690898      0              5.8224239      18.156897    
     36000   3.0555649      1.4131557      0              5.9942651      18.354526    
     36500   2.9746947      1.3199562      0              5.7798196      17.617917    
     37000   3.0750313      1.3100426      0              5.9203373      17.424433    
     37500   2.9973973      1.3077077      0              5.8016083      17.369227    
     38000   2.9719115      1.3115842      0              5.7672748      17.436574    
     38500   2.9650005      1.3111688      0              5.7564979      17.523432    
     39000   2.9556613      1.2983282      0              5.7296554      17.50693     
     39500   2.9601224      1.2676541      0              5.7056696      17.259614    
     40000   2.9339761      1.3055476      0              5.7043628      17.354347    
     40500   2.9878304      1.3233598      0              5.802917       17.431326    
     41000   3.0499         1.3156064      0              5.8882227      17.396879    
     41500   3.0061537      1.290913       0              5.7979418      17.479306    
     42000   3.0249239      1.2664891      0              5.8016595      17.047224    
     42500   2.9595428      1.3338523      0              5.7709988      17.546296    
     43000   2.9340325      1.3757273      0              5.7746271      17.81508     
     43500   2.9988166      1.3102528      0              5.8062812      17.542804    
     44000   3.0224049      1.3742813      0              5.905675       18.064223    
     44500   3.0588906      1.3267483      0              5.9128438      17.809198    
     45000   3.0495579      1.3415166      0              5.9136199      17.755377    
     45500   3.0640661      1.2641582      0              5.8580132      17.230871    
     46000   3.0651313      1.2990401      0              5.8944921      17.492357    
     46500   3.0347294      1.2847091      0              5.8345804      17.38207     
     47000   3.0220846      1.2602403      0              5.7911537      17.259944    
     47500   2.9675204      1.2472654      0              5.6963726      16.983548    
     48000   2.9574138      1.3809937      0              5.8149484      18.056792    
     48500   3.0318012      1.2983073      0              5.8437885      17.423922    
     49000   3.0229491      1.4202729      0              5.9524825      18.272043    
     49500   3.0270292      1.2612252      0              5.7995519      17.010984    
     50000   3.022033       1.3738994      0              5.9047354      18.053067    
Loop time of 2.92844 on 64 procs for 50000 steps with 2048 atoms

Performance: 14751898.608 tau/day, 17073.957 timesteps/s, 34.967 Matom-step/s
99.6% CPU use with 64 MPI tasks x 1 OpenMP threads

MPI task timing breakdown:
Section |  min time  |  avg time  |  max time  |%varavg| %total
---------------------------------------------------------------
Pair    | 0.064528   | 0.071276   | 0.082305   |   1.5 |  2.43
Neigh   | 0.31022    | 0.31605    | 0.36974    |   1.5 | 10.79
Comm    | 1.5151     | 1.6623     | 1.8425     |   6.5 | 56.76
Output  | 0.0038095  | 0.004064   | 0.0055716  |   0.4 |  0.14
Modify  | 0.2101     | 0.52039    | 0.69027    |  17.1 | 17.77
Other   |            | 0.3543     |            |       | 12.10

Nlocal:             32 ave          38 max          26 min
Histogram: 2 3 5 8 9 18 10 5 2 2
Nghost:        150.625 ave         160 max         140 min
Histogram: 3 2 6 3 9 12 14 5 6 4
Neighs:        135.594 ave         181 max         101 min
Histogram: 1 1 12 14 16 5 12 0 2 1

Total # of neighbors = 8678
Ave neighs/atom = 4.2373047
Neighbor list builds = 20247
Dangerous builds = 0
Generated 0 of 0 mixed pair_coeff terms from geometric mixing rule
Setting up Verlet run ...
  Unit style    : lj
  Current step  : 50000
  Time step     : 0.01
Per MPI rank memory allocation (min/avg/max) = 3.105 | 3.105 | 3.105 Mbytes
   Step          Temp          E_pair         E_mol          TotEng         Press     
     50000   3.022033       1.3738994      0              5.9047354      18.053067    
     50500   3.0466397      1.2876916      0              5.8554197      17.30944     
     51000   2.9741506      1.3674264      0              5.8264739      18.226694    
     51500   3.0274565      1.4057269      0              5.9446942      18.267832    
     52000   2.9665431      1.3920672      0              5.8397091      18.155198    
     52500   3.0673924      1.2946044      0              5.8934464      17.38927     
     53000   2.9342767      1.3322581      0              5.7315241      17.734191    
     53500   2.9979543      1.3531154      0              5.8478511      17.74179     
     54000   2.8984254      1.3170559      0              5.6625711      17.404415    
     54500   2.9201105      1.2841454      0              5.6621724      17.265754    
     55000   2.929632       1.2518511      0              5.6441535      16.942185    
     55500   2.877061       1.2506548      0              5.564139       16.969326    
     56000   2.7778067      1.2342803      0              5.3989559      16.703159    
     56500   2.8324756      1.1942695      0              5.4409083      16.302407    
     57000   2.7213         1.2342615      0              5.3142184      16.675992    
     57500   2.7632641      1.1891652      0              5.3320375      16.445055    
     58000   2.7544368      1.1617364      0              5.2913741      15.997503    
     58500   2.7432711      1.2958896      0              5.4087871      17.261205    
     59000   2.8101588      1.1312746      0              5.3444546      16.010383    
     59500   2.7796216      1.2589685      0              5.4263651      16.83989     
     60000   2.7376226      1.2139825      0              5.3184113      16.539986    
     60500   2.6412245      1.1456847      0              5.1055869      15.965729    
     61000   2.6476407      1.0930823      0              5.0626041      15.433751    
     61500   2.5803382      1.1257835      0              4.9944009      15.767583    
     62000   2.56005        1.1422833      0              4.9804833      15.745163    
     62500   2.5640708      1.1393831      0              4.9836113      15.766236    
     63000   2.6171092      1.0931998      0              5.0169467      15.249589    
     63500   2.6096429      1.1177758      0              5.0303288      15.616829    
     64000   2.6144709      1.0408085      0              4.9605999      14.926915    
     64500   2.558661       1.0809591      0              4.9170765      15.161117    
     65000   2.5262305      1.0925208      0              4.8800164      15.057468    
     65500   2.5068716      1.0878385      0              4.8463099      15.351412    
     66000   2.5072562      1.1023639      0              4.8614117      15.325157    
     66500   2.4708435      1.1680859      0              4.8725414      15.998244    
     67000   2.5510831      1.0627929      0              4.8875491      15.116154    
     67500   2.4880227      1.1408987      0              4.8711104      15.530478    
     68000   2.5568726      1.0084193      0              4.8418555      14.558392    
     68500   2.4952259      1.0741235      0              4.8151347      15.071932    
     69000   2.4501944      0.98499489     0              4.6584919      14.223228    
     69500   2.4804619      0.97160402     0              4.6904802      14.139547    
     70000   2.4450684      1.0606936      0              4.7265054      14.917541    
     70500   2.4625586      1.0838307      0              4.7758649      15.190615    
     71000   2.3297426      1.052924       0              4.5458315      14.820962    
     71500   2.3743584      1.0152535      0              4.5750521      14.499813    
     72000   2.3966523      1.0041064      0              4.5973295      14.305711    
     72500   2.3346595      1.0912646      0              4.5915439      14.853079    
     73000   2.3607659      0.96830877     0              4.5077286      14.063371    
     73500   2.3472197      0.96238323     0              4.4814937      13.920724    
     74000   2.3518354      0.98396672     0              4.5099974      14.256679    
     74500   2.3139417      0.99374868     0              4.4629665      14.188622    
     75000   2.2521489      0.97668588     0              4.3532597      14.066164    
     75500   2.2338074      0.91470445     0              4.2637794      13.476521    
     76000   2.2666023      0.90471758     0              4.3029609      13.288902    
     76500   2.2307705      0.89984695     0              4.2443688      13.436506    
     77000   2.267236       0.87478211     0              4.2739756      13.188469    
     77500   2.1662318      0.90716115     0              4.1549222      13.269618    
     78000   2.2067229      0.8882949      0              4.1967631      13.201468    
     78500   2.1987404      0.95118905     0              4.2476893      13.96014     
     79000   2.2625988      0.93736844     0              4.3296094      13.61464     
     79500   2.1901989      0.91895998     0              4.2026542      13.616874    
     80000   2.1601774      0.92184419     0              4.1605281      13.558568    
     80500   2.1153117      0.94562948     0              4.1170478      13.620937    
     81000   2.0716862      0.89734002     0              4.0033519      13.038517    
     81500   2.033181       0.8990639      0              3.9473463      13.274187    
     82000   1.9974715      0.86254025     0              3.8572845      12.822979    
     82500   2.0048404      0.85226693     0              3.8580591      12.768374    
     83000   1.9894364      0.8074942      0              3.7901916      12.412822    
     83500   2.0156473      0.84023579     0              3.8622305      12.664471    
     84000   2.0065185      0.83006358     0              3.8383718      12.495404    
     84500   1.9828753      0.80363872     0              3.7764994      12.266578    
     85000   1.9806927      0.81570892     0              3.7852972      12.412032    
     85500   1.9708898      0.81875303     0              3.7736442      12.377715    
     86000   1.9933252      0.79080069     0              3.7793285      12.04929     
     86500   1.947439       0.79675518     0              3.7164873      12.111124    
     87000   1.9277966      0.83768705     0              3.7279701      12.566828    
     87500   1.9325209      0.81641966     0              3.7137856      12.463876    
     88000   1.913522       0.82087261     0              3.6897541      12.415405    
     88500   1.9236271      0.77792195     0              3.6619537      12.085481    
     89000   1.8814479      0.78251146     0              3.6033053      11.917478    
     89500   1.8792592      0.76387524     0              3.5813876      11.85815     
     90000   1.8975404      0.76627325     0              3.611194       11.858518    
     90500   1.8953926      0.74120749     0              3.5829082      11.611652    
     91000   1.847068       0.72107554     0              3.4903248      11.452345    
     91500   1.746967       0.73850865     0              3.3576796      11.684225    
     92000   1.7552134      0.70421144     0              3.3357459      11.163003    
     92500   1.7304202      0.69784803     0              3.292211       11.14822     
     93000   1.7534267      0.7026526      0              3.3315084      11.078073    
     93500   1.6979831      0.72428412     0              3.2700152      11.19892     
     94000   1.7411574      0.68806628     0              3.2985271      11.07205     
     94500   1.7594852      0.69173036     0              3.3296695      10.978337    
     95000   1.7141146      0.69954934     0              3.2694657      11.091306    
     95500   1.6961697      0.67191812     0              3.2149303      10.735717    
     96000   1.6379308      0.65722142     0              3.112918       10.351107    
     96500   1.6342938      0.64235465     0              3.0925983      10.388644    
     97000   1.6588667      0.67269902     0              3.1597841      10.742188    
     97500   1.6370808      0.64301421     0              3.0974363      10.475723    
     98000   1.6367412      0.65747773     0              3.1113907      10.649237    
     98500   1.6231329      0.62070576     0              3.0542163      10.245684    
     99000   1.583371       0.66020359     0              3.0341003      10.617423    
     99500   1.5487572      0.60585646     0              2.9278579      9.9726678    
    100000   1.5585446      0.59381596     0              2.9304913      9.8280378    
    100500   1.5069073      0.61616904     0              2.8754263      10.151479    
    101000   1.5139802      0.57807388     0              2.8479354      9.7456351    
    101500   1.493032       0.61355253     0              2.852007       10.040911    
    102000   1.5332029      0.54236277     0              2.8410442      9.3762173    
    102500   1.5100478      0.61743368     0              2.8813994      10.163762    
    103000   1.4764799      0.57361122     0              2.7872497      9.5603184    
    103500   1.4748545      0.59252642     0              2.803728       9.862225     
    104000   1.4354993      0.57911998     0              2.7313175      9.5690227    
    104500   1.3996576      0.53904312     0              2.6375044      9.2959852    
    105000   1.3591464      0.55584912     0              2.5935732      9.2371588    
    105500   1.3973645      0.51390414     0              2.6089274      8.9391152    
    106000   1.3947324      0.52306109     0              2.6141381      9.0569184    
    106500   1.3554627      0.53821368     0              2.570415       9.1111104    
    107000   1.3587559      0.5272499      0              2.5643886      9.0082278    
    107500   1.3079485      0.49372939     0              2.4546942      8.8331738    
    108000   1.3109726      0.5227667      0              2.4882654      8.9774463    
    108500   1.3165619      0.53249519     0              2.5063738      9.1258959    
    109000   1.2755727      0.50384357     0              2.4162684      8.636002     
    109500   1.2919448      0.46320399     0              2.4001749      8.3531444    
    110000   1.2567521      0.47244382     0              2.3566516      8.3265902    
    110500   1.2497991      0.46933418     0              2.3431175      8.2976111    
    111000   1.2387291      0.47672905     0              2.3339154      8.4730115    
    111500   1.2403562      0.47690242     0              2.3365283      8.4060437    
    112000   1.2049147      0.41846233     0              2.2249518      7.7474534    
    112500   1.1688429      0.43301575     0              2.185424       7.8931492    
    113000   1.1412209      0.44748462     0              2.1584801      7.8818298    
    113500   1.1263967      0.39574134     0              2.0845115      7.4523615    
    114000   1.1038051      0.43555493     0              2.0904541      7.8530534    
    114500   1.1190993      0.41124198     0              2.0890713      7.5653732    
    115000   1.1154928      0.3949121      0              2.0673343      7.4494031    
    115500   1.0905224      0.40463494     0              2.0396199      7.5570886    
    116000   1.0984449      0.40124305     0              2.0481059      7.4911353    
    116500   1.0740532      0.40620758     0              2.0165007      7.4921428    
    117000   1.0823911      0.38671142     0              2.0095053      7.3376478    
    117500   1.0297695      0.39121047     0              1.9351105      7.2848621    
    118000   1.0126856      0.40792466     0              1.9262114      7.4415075    
    118500   0.98959109     0.40542782     0              1.8890897      7.4088193    
    119000   1.0231232      0.34156133     0              1.8754967      6.8070069    
    119500   0.99777566     0.35945597     0              1.8553887      6.7947098    
    120000   0.97411935     0.36929754     0              1.8297631      6.9567233    
    120500   0.98665631     0.34408137     0              1.8233432      6.743284     
    121000   0.94137919     0.33908414     0              1.7504634      6.5715268    
    121500   0.9571459      0.33987707     0              1.7748949      6.6096968    
    122000   0.91394069     0.31386098     0              1.6841026      6.3091951    
    122500   0.88475207     0.35101202     0              1.6774921      6.7217765    
    123000   0.86098187     0.30817275     0              1.599015       6.1862003    
    123500   0.87808089     0.28938345     0              1.6058617      6.0360475    
    124000   0.86300116     0.31632699     0              1.6101967      6.2766328    
    124500   0.84223568     0.31239437     0              1.575131       6.1531235    
    125000   0.82637117     0.30425567     0              1.5432072      6.0650195    
    125500   0.78995779     0.2749866      0              1.4593447      5.6421947    
    126000   0.78500654     0.28596988     0              1.4629047      5.844752     
    126500   0.77825201     0.27516038     0              1.4419684      5.7081976    
    127000   0.75722133     0.27817656     0              1.4134539      5.759947     
    127500   0.76510188     0.28430199     0              1.4313944      5.7703129    
    128000   0.74038105     0.24300896     0              1.3530383      5.2486821    
    128500   0.72242458     0.25566996     0              1.3387777      5.4017589    
    129000   0.69528834     0.239969       0              1.2823923      5.1632848    
    129500   0.69452147     0.24150445     0              1.282778       5.2755714    
    130000   0.69675238     0.23696085     0              1.2815791      5.1220204    
    130500   0.6684011      0.21920103     0              1.2213131      4.8806357    
    131000   0.65455029     0.20521472     0              1.1865607      4.6455845    
    131500   0.62910078     0.201476       0              1.1446664      4.6007642    
    132000   0.60952663     0.19805677     0              1.1119003      4.6009455    
    132500   0.60436479     0.19618185     0              1.1022864      4.5343159    
    133000   0.59741029     0.19293744     0              1.0886153      4.4759093    
    133500   0.59484122     0.18750191     0              1.0793281      4.3480705    
    134000   0.56617876     0.18289025     0              1.0317437      4.3274263    
    134500   0.53569512     0.16750909     0              0.97065941     4.0022161    
    135000   0.52350034     0.16635291     0              0.95122        4.0028483    
    135500   0.51939182     0.15158284     0              0.93029016     3.7798812    
    136000   0.50047531     0.15475259     0              0.90509899     3.8485928    
    136500   0.48241966     0.14643434     0              0.8697105      3.7055933    
    137000   0.4781971      0.14258992     0              0.85953533     3.577863     
    137500   0.46064636     0.13728134     0              0.82791349     3.5191292    
    138000   0.45342411     0.12838983     0              0.80819389     3.3422175    
    138500   0.4223415      0.13639939     0              0.76960231     3.4370009    
    139000   0.42160173     0.12151465     0              0.75360846     3.2280874    
    139500   0.41811709     0.11238181     0              0.73925121     3.054664     
    140000   0.38655292     0.1137782      0              0.69332446     3.0914263    
    140500   0.37864558     0.091691021    0              0.65938207     2.7090832    
    141000   0.355708       0.098935692    0              0.63223716     2.858112     
    141500   0.34470865     0.092886921    0              0.60969742     2.6990549    
    142000   0.33516363     0.087758603    0              0.59025857     2.5689726    
    142500   0.32460189     0.086202596    0              0.57286768     2.5741377    
    143000   0.30490253     0.078516961    0              0.53564744     2.3942465    
    143500   0.27805046     0.08092794     0              0.49779998     2.4077024    
    144000   0.27426888     0.069578407    0              0.48078085     2.201917     
    144500   0.26380436     0.068311865    0              0.46382519     2.183318     
    145000   0.24304135     0.0557433      0              0.42012731     1.9137459    
    145500   0.23132392     0.053895849    0              0.4007123      1.8557899    
    146000   0.20855893     0.051730001    0              0.36441564     1.7595142    
    146500   0.20302272     0.044269022    0              0.3486544      1.6380066    
    147000   0.18113372     0.04205866     0              0.31362657     1.534962     
    147500   0.17475534     0.035914075    0              0.29791908     1.3836513    
    148000   0.16146924     0.03240255     0              0.27448815     1.3005237    
    148500   0.14489543     0.029276808    0              0.24651383     1.241346     
    149000   0.12876716     0.027821214    0              0.22087765     1.1883695    
    149500   0.11685498     0.020657462    0              0.19585435     0.98303788   
    150000   0.10204756     0.017678656    0              0.17067526     0.87458421   
Loop time of 5.44066 on 64 procs for 100000 steps with 2048 atoms

Performance: 15880417.455 tau/day, 18380.113 timesteps/s, 37.642 Matom-step/s
99.6% CPU use with 64 MPI tasks x 1 OpenMP threads

MPI task timing breakdown:
Section |  min time  |  avg time  |  max time  |%varavg| %total
---------------------------------------------------------------
Pair    | 0.11591    | 0.12898    | 0.15006    |   2.1 |  2.37
Neigh   | 0.43507    | 0.44249    | 0.51281    |   1.7 |  8.13
Comm    | 2.6985     | 3.0049     | 3.374      |  10.0 | 55.23
Output  | 0.12656    | 0.12707    | 0.12821    |   0.1 |  2.34
Modify  | 0.40696    | 1.0392     | 1.39       |  24.9 | 19.10
Other   |            | 0.698      |            |       | 12.83

Nlocal:             32 ave          38 max          27 min
Histogram: 4 2 10 7 17 10 8 2 2 2
Nghost:        153.312 ave         165 max         145 min
Histogram: 3 5 13 9 8 9 10 3 3 1
Neighs:        144.703 ave         185 max         104 min
Histogram: 2 2 3 6 20 14 11 1 4 1

Total # of neighbors = 9261
Ave neighs/atom = 4.5219727
Neighbor list builds = 28262
Dangerous builds = 0
Total wall time: 0:00:08
LAMMPS (15 Sep 2022)
OMP_NUM_THREADS environment is not set. Defaulting to 1 thread. (src/comm.cpp:98)
  using 1 OpenMP thread(s) per MPI task
Lattice spacing in x,y,z = 1.5874011 1.5874011 1.5874011
Created orthogonal box = (0 0 0) to (12.699208 12.699208 12.699208)
  4 by 4 by 4 MPI processor grid
Created 2048 atoms
  using lattice units in orthogonal box = (0 0 0) to (12.699208 12.699208 12.699208)
  create_atoms CPU = 0.001 seconds
Generated 0 of 0 mixed pair_coeff terms from geometric mixing rule
Neighbor list info ...
  update: every = 1 steps, delay = 0 steps, check = yes
  max neighbors/atom: 2000, page size: 100000
  master list distance cutoff = 1.3
  ghost atom cutoff = 1.3
  binsize = 0.65, bins = 20 20 20
  1 neighbor lists, perpetual/occasional/extra = 1 0 0
  (1) pair lj/cut, perpetual
      attributes: half, newton on
      pair build: half/bin/atomonly/newton
      stencil: half/bin/3d
      bin: standard
Setting up Verlet run ...
  Unit style    : lj
  Current step  : 0
  Time step     : 0.01
Per MPI rank memory allocation (min/avg/max) = 3.063 | 3.064 | 3.064 Mbytes
   Step          Temp          E_pair         E_mol          TotEng         Press     
         0   3              0              0              4.4978027      2.9985352    
       500   3.1193696      1.9079144      0              6.584684       26.199075    
      1000   3.1290033      1.7662047      0              6.4574179      25.221416    
      1500   3.0395608      1.8497077      0              6.4068227      25.663071    
      2000   2.9591947      1.8817257      0              6.3183504      26.013858    
      2500   3.033991       1.8058391      0              6.3546034      25.220104    
      3000   3.049736       1.8603267      0              6.432697       25.831592    
      3500   2.975837       1.8159054      0              6.2774813      25.216918    
      4000   3.0152671      1.7797793      0              6.3004716      25.004137    
      4500   2.8964829      1.8736902      0              6.2162931      25.606635    
      5000   2.9439297      1.828552       0              6.2422903      25.235796    
      5500   3.0036897      1.7128072      0              6.2161417      24.476673    
      6000   2.9086181      1.8836134      0              6.2444102      26.023784    
      6500   2.9681677      1.7332188      0              6.1832964      24.417619    
      7000   3.0080881      1.7754789      0              6.2854078      25.036263    
      7500   3.0220724      1.8023505      0              6.3332457      25.053399    
      8000   2.9552588      1.8275162      0              6.25824        25.251396    
      8500   2.985094       1.8161223      0              6.2915769      25.27894     
      9000   2.9635482      1.7638252      0              6.2069769      25.026412    
      9500   2.9877348      1.8273311      0              6.306745       25.507568    
     10000   3.0003515      1.7574976      0              6.2558274      24.790667    
     10500   2.968566       1.7713772      0              6.222052       25.00273     
     11000   2.977739       1.8182011      0              6.2826286      25.322975    
     11500   3.043556       1.7936339      0              6.3567388      25.402778    
     12000   3.1501409      1.7288774      0              6.4517814      24.613817    
     12500   3.0785151      1.8033629      0              6.4188809      25.552758    
     13000   3.0166535      1.7008043      0              6.2235751      24.367027    
     13500   2.9623017      1.8830687      0              6.3243516      25.855057    
     14000   3.005154       1.7210858      0              6.2266157      24.466945    
     14500   3.1338619      1.782022       0              6.4805195      25.318768    
     15000   2.9262619      1.8012975      0              6.188547       25.010389    
     15500   2.9800775      1.8512148      0              6.3191484      25.562607    
     16000   3.0173749      1.7176363      0              6.2414887      24.734674    
     16500   2.98937        1.8541751      0              6.3360406      25.512676    
     17000   3.0572754      1.8319632      0              6.4156371      25.569705    
     17500   2.9417664      1.8650254      0              6.2755204      25.80722     
     18000   3.0241962      1.7241024      0              6.2581817      24.642679    
     18500   3.11922        1.7417896      0              6.4183349      24.698815    
     19000   3.0451585      1.7901154      0              6.3556228      25.190768    
     19500   2.972412       1.7783396      0              6.2347805      24.995593    
     20000   3.0066178      1.752945       0              6.2606696      24.845626    
     20500   2.951892       1.7883526      0              6.2140286      25.228486    
     21000   2.9783701      1.7837626      0              6.2491363      25.270031    
     21500   2.9978654      1.7701333      0              6.2647358      24.862321    
     22000   2.9938387      1.7588567      0              6.2474219      24.873617    
     22500   3.102396       1.6582534      0              6.3095752      24.084319    
     23000   2.9439665      1.9604542      0              6.3742477      26.656999    
     23500   3.0616491      1.8599685      0              6.4501998      25.586487    
     24000   2.9826004      1.8718195      0              6.3435356      26.073497    
     24500   3.1286569      1.8443945      0              6.5350884      26.057338    
     25000   2.9582061      1.8279143      0              6.2630568      25.447853    
     25500   3.0253491      1.8863651      0              6.4221728      25.867682    
     26000   2.9574195      1.8087794      0              6.2427426      25.021844    
     26500   3.0869334      1.7168666      0              6.3450056      24.582497    
     27000   2.9863974      1.6954181      0              6.1728269      24.293607    
     27500   3.037856       1.7585546      0              6.3131136      24.733877    
     28000   3.0934292      1.7530415      0              6.3909197      24.731612    
     28500   3.0032975      1.7875025      0              6.290249       25.098504    
     29000   2.9461234      1.9353927      0              6.35242        26.140067    
     29500   3.0027701      1.8181219      0              6.3200778      25.481165    
     30000   3.0810008      1.8681144      0              6.487359       25.942605    
     30500   2.9952391      1.8128958      0              6.3035607      25.456007    
     31000   3.0733664      1.8626792      0              6.4704779      26.08663     
     31500   2.9669231      1.8010719      0              6.2492835      25.264611    
     32000   2.9340083      1.8403412      0              6.2392047      25.682853    
     32500   3.0168396      1.7303606      0              6.2534104      24.58839     
     33000   3.0210609      1.8161376      0              6.3455163      25.13444     
     33500   2.9738402      1.7812163      0              6.2397986      24.959297    
     34000   3.0277217      1.7462676      0              6.2856326      24.750148    
     34500   3.0108611      1.8850965      0              6.399183       25.883487    
     35000   2.9566657      1.7101391      0              6.1429721      24.52001     
     35500   2.978509       1.8109455      0              6.2765275      25.467867    
     36000   3.0680008      1.8405264      0              6.4402805      25.634686    
     36500   3.0034332      1.7671003      0              6.2700503      25.17059     
     37000   2.9767288      1.8223082      0              6.2852211      25.34955     
     37500   3.1152944      1.845042       0              6.5157019      25.91831     
     38000   2.9145096      1.8883792      0              6.258009       25.759441    
     38500   2.9865872      1.9261228      0              6.4038161      26.205903    
ERROR: Lost atoms: original 2048 current 1894 (src/thermo.cpp:481)
Last command: run ${equil_steps}
--------------------------------------------------------------------------
Primary job  terminated normally, but 1 process returned
a non-zero exit code. Per user-direction, the job has been aborted.
--------------------------------------------------------------------------
--------------------------------------------------------------------------
mpirun detected that one or more processes exited with non-zero status, thus causing
the job to be terminated. The first process to do so was:

  Process name: [[61843,1],48]
  Exit code:    1
--------------------------------------------------------------------------
LAMMPS (15 Sep 2022)
OMP_NUM_THREADS environment is not set. Defaulting to 1 thread. (src/comm.cpp:98)
  using 1 OpenMP thread(s) per MPI task
Lattice spacing in x,y,z = 1.5377619 1.5377619 1.5377619
Created orthogonal box = (0 0 0) to (12.302095 12.302095 12.302095)
  4 by 4 by 4 MPI processor grid
Created 2048 atoms
  using lattice units in orthogonal box = (0 0 0) to (12.302095 12.302095 12.302095)
  create_atoms CPU = 0.001 seconds
Generated 0 of 0 mixed pair_coeff terms from geometric mixing rule
Neighbor list info ...
  update: every = 1 steps, delay = 0 steps, check = yes
  max neighbors/atom: 2000, page size: 100000
  master list distance cutoff = 1.3
  ghost atom cutoff = 1.3
  binsize = 0.65, bins = 19 19 19
  1 neighbor lists, perpetual/occasional/extra = 1 0 0
  (1) pair lj/cut, perpetual
      attributes: half, newton on
      pair build: half/bin/atomonly/newton
      stencil: half/bin/3d
      bin: standard
Setting up Verlet run ...
  Unit style    : lj
  Current step  : 0
  Time step     : 0.01
Per MPI rank memory allocation (min/avg/max) = 3.063 | 3.063 | 3.063 Mbytes
   Step          Temp          E_pair         E_mol          TotEng         Press     
         0   3              0              0              4.4978027      3.2983887    
       500   3.0157618      2.6482263      0              7.1696602      37.877734    
      1000   2.9849425      2.4199095      0              6.895137       35.486247    
      1500   2.9204474      2.456601       0              6.8351331      35.839022    
      2000   2.9913812      2.3930304      0              6.8779112      35.143132    
      2500   2.9893901      2.4720575      0              6.9539532      35.828313    
      3000   2.9633697      2.4490135      0              6.8918975      35.934799    
      3500   3.0742589      2.498929       0              7.1080657      36.455045    
ERROR: Lost atoms: original 2048 current 2042 (src/thermo.cpp:481)
Last command: run ${equil_steps}
--------------------------------------------------------------------------
Primary job  terminated normally, but 1 process returned
a non-zero exit code. Per user-direction, the job has been aborted.
--------------------------------------------------------------------------
--------------------------------------------------------------------------
mpirun detected that one or more processes exited with non-zero status, thus causing
the job to be terminated. The first process to do so was:

  Process name: [[61908,1],27]
  Exit code:    1
--------------------------------------------------------------------------
LAMMPS (15 Sep 2022)
OMP_NUM_THREADS environment is not set. Defaulting to 1 thread. (src/comm.cpp:98)
  using 1 OpenMP thread(s) per MPI task
Lattice spacing in x,y,z = 1.4938016 1.4938016 1.4938016
Created orthogonal box = (0 0 0) to (11.950413 11.950413 11.950413)
  4 by 4 by 4 MPI processor grid
Created 2048 atoms
  using lattice units in orthogonal box = (0 0 0) to (11.950413 11.950413 11.950413)
  create_atoms CPU = 0.001 seconds
Generated 0 of 0 mixed pair_coeff terms from geometric mixing rule
Neighbor list info ...
  update: every = 1 steps, delay = 0 steps, check = yes
  max neighbors/atom: 2000, page size: 100000
  master list distance cutoff = 1.3
  ghost atom cutoff = 1.3
  binsize = 0.65, bins = 19 19 19
  1 neighbor lists, perpetual/occasional/extra = 1 0 0
  (1) pair lj/cut, perpetual
      attributes: half, newton on
      pair build: half/bin/atomonly/newton
      stencil: half/bin/3d
      bin: standard
Setting up Verlet run ...
  Unit style    : lj
  Current step  : 0
  Time step     : 0.01
Per MPI rank memory allocation (min/avg/max) = 3.063 | 3.063 | 3.063 Mbytes
   Step          Temp          E_pair         E_mol          TotEng         Press     
         0   3              0              0              4.4978027      3.5982422    
       500   3.0938985      2.4626391      0              7.1012209      40.166699    
      1000   3.0412508      2.3088534      0              6.8685022      38.272722    
      1500   2.9876178      2.2633464      0              6.7425848      37.884264    
      2000   2.9999816      2.1839405      0              6.6817157      37.05176     
      2500   2.9230818      2.3403536      0              6.7228354      38.410015    
      3000   2.9798375      2.2447521      0              6.7123258      37.670085    
      3500   2.9596957      2.3363837      0              6.7737595      38.721217    
      4000   2.998225       2.2365934      0              6.7317349      37.765584    
      4500   3.0399421      2.2524302      0              6.8101169      37.830264    
      5000   2.9023332      2.3515038      0              6.7028779      38.872362    
      5500   3.0045689      2.3177546      0              6.8224073      38.671589    
      6000   2.9725061      2.1624114      0              6.6189934      36.930046    
      6500   3.012182       2.3363068      0              6.8523736      38.670774    
      7000   2.974022       2.2878174      0              6.7466722      38.276602    
      7500   2.9743672      2.2985721      0              6.7579444      38.659636    
      8000   3.0123565      2.2428747      0              6.7592032      37.855974    
      8500   2.9601274      2.3798967      0              6.8179198      39.212864    
      9000   3.0156593      2.369586       0              6.8908663      39.014769    
      9500   3.0203926      2.2325703      0              6.7609469      37.87484     
     10000   3.0081457      2.2634272      0              6.7734426      38.143445    
     10500   2.9442078      2.3049792      0              6.7191345      38.422358    
     11000   2.9772964      2.4154572      0              6.8792212      39.629115    
     11500   2.9026486      2.2519977      0              6.6038446      38.012884    
     12000   2.9851835      2.2894776      0              6.7650665      38.155871    
     12500   2.9881692      2.276783       0              6.7568482      38.214678    
     13000   3.0241059      2.3308922      0              6.864836       38.835915    
     13500   2.9160975      2.2264398      0              6.5984503      37.590835    
     14000   3.0073976      2.3519711      0              6.8608648      39.018633    
     14500   3.0084355      2.3291783      0              6.8396281      38.417829    
     15000   2.8961265      2.1615495      0              6.503618       36.963327    
     15500   3.0149832      2.2566972      0              6.7769637      37.785129    
     16000   3.0654867      2.2257476      0              6.8217324      37.679044    
     16500   2.986372       2.4002224      0              6.8775931      39.683852    
     17000   2.9846907      2.2805371      0              6.7553871      38.164208    
     17500   3.0263836      2.1644078      0              6.7017666      37.211765    
     18000   2.9769577      2.3672406      0              6.8304967      39.299714    
     18500   2.9564103      2.2937313      0              6.7261814      38.466615    
     19000   3.0005825      2.2853795      0              6.7840556      38.290385    
     19500   3.0343088      2.3134405      0              6.8626813      38.762104    
     20000   3.0316717      2.2826938      0              6.8279809      38.454916    
     20500   3.1117992      2.4068651      0              7.0722849      39.794892    
     21000   2.9330115      2.3388594      0              6.7362285      38.518271    
     21500   3.0777449      2.2443337      0              6.8586969      37.680321    
     22000   2.9879857      2.2966103      0              6.7764004      38.301168    
     22500   3.0437222      2.4052081      0              6.9685621      39.401297    
     23000   2.9821013      2.2343545      0              6.7053224      37.848701    
     23500   2.9866983      2.3115953      0              6.7894552      38.401159    
     24000   3.0472848      2.3863399      0              6.9550352      39.52392     
     24500   3.0351354      2.2226407      0              6.7731207      37.37351     
     25000   3.0446224      2.3174063      0              6.8821098      38.567277    
     25500   3.0006768      2.3380107      0              6.8368281      38.955741    
     26000   3.0599485      2.3159259      0              6.9036074      38.703683    
     26500   2.9781198      2.2107344      0              6.675733       37.08042     
     27000   2.9622353      2.2624376      0              6.7036209      37.377184    
     27500   2.9693676      2.2841386      0              6.7360151      38.232157    
     28000   2.9776353      2.3006004      0              6.7648725      38.220034    
     28500   2.9817289      2.2854125      0              6.755822       38.009101    
     29000   2.9327974      2.2844636      0              6.6815117      38.051529    
     29500   3.0064922      2.2990864      0              6.8066226      38.514643    
     30000   2.9456638      2.2663047      0              6.6826428      37.746661    
     30500   2.9959966      2.2901374      0              6.781938       38.241027    
     31000   3.0310471      2.3361094      0              6.88046        38.960374    
     31500   2.9485641      2.3571159      0              6.7778024      39.171022    
     32000   3.0944003      2.2467768      0              6.8861109      37.688968    
     32500   2.9735832      2.3815661      0              6.8397629      39.215324    
     33000   3.0199748      2.3020695      0              6.8298199      38.40234     
     33500   3.0127979      2.2986001      0              6.8155904      38.310663    
     34000   2.9339562      2.2327207      0              6.6315062      37.626807    
     34500   2.9793495      2.3524532      0              6.8192952      39.029552    
     35000   2.888783       2.2747898      0              6.6058486      38.156498    
     35500   3.0186396      2.2842405      0              6.809989       38.380522    
     36000   2.8510958      2.2560023      0              6.5305578      37.90318     
     36500   2.996482       2.2767301      0              6.7692584      38.555163    
     37000   2.9691968      2.3292735      0              6.7808939      38.446067    
     37500   2.9997768      2.3244572      0              6.8219253      38.670056    
     38000   3.1425372      2.2514373      0              6.9629414      38.066385    
     38500   2.977607       2.2924358      0              6.7566654      38.293265    
     39000   2.9932685      2.2918431      0              6.7795536      38.110216    
     39500   3.1319941      2.3241809      0              7.0198782      38.698433    
     40000   3.0238657      2.1906588      0              6.7242426      37.045571    
     40500   3.0121122      2.2418507      0              6.757813       37.75404     
     41000   3.0587629      2.1463493      0              6.7322534      36.638791    
     41500   3.004864       2.2505756      0              6.7556708      37.938168    
     42000   2.9779454      2.2333633      0              6.6981003      37.954463    
[...]
     92500   1.7774683      3.9875803      0              6.6524809      90.4898      
     93000   1.7203206      3.8791677      0              6.4583886      89.440847    
     93500   1.7297312      3.9342209      0              6.5275509      90.170538    
     94000   1.6907081      3.8950071      0              6.4298309      89.322426    
     94500   1.773491       3.8676137      0              6.5265512      89.391789    
     95000   1.7119216      3.7820426      0              6.3486711      88.028519    
     95500   1.7110611      3.8612623      0              6.4266007      89.212728    
     96000   1.5908015      3.8183402      0              6.2033774      88.247337    
     96500   1.6674353      3.7974455      0              6.2973771      88.129006    
     97000   1.5634313      3.7325803      0              6.0765821      87.171398    
     97500   1.6303222      3.6744574      0              6.1187467      86.663499    
     98000   1.6041925      3.6453091      0              6.0504229      86.193543    
     98500   1.5856253      3.7537327      0              6.1310094      87.670342    
     99000   1.614226       3.6122642      0              6.0324209      85.850612    
     99500   1.5518721      3.6454493      0              5.9721208      86.013176    
    100000   1.5679302      3.5818486      0              5.9325955      85.596814    
    100500   1.5808802      3.5374169      0              5.9075794      84.765442    
    101000   1.5399586      3.5346966      0              5.8435067      84.601533    
    101500   1.5082797      3.5702083      0              5.8315232      85.191032    
    102000   1.4945053      3.5275662      0              5.7682296      84.527203    
    102500   1.4675375      3.4537692      0              5.6540007      83.655298    
    103000   1.4959119      3.4124117      0              5.6551838      83.229823    
    103500   1.4260761      3.3793441      0              5.5174138      82.902201    
    104000   1.428891       3.4353019      0              5.5775918      83.422887    
    104500   1.4075165      3.394784       0              5.5050278      82.803934    
    105000   1.3777248      3.3404255      0              5.4060037      82.219299    
    105500   1.3886363      3.3927717      0              5.4747091      82.731962    
    106000   1.366402       3.2583267      0              5.3069289      81.239113    
    106500   1.4212078      3.2786754      0              5.4094462      81.300541    
    107000   1.3557811      3.2459166      0              5.2785954      80.936116    
    107500   1.3970084      3.2744302      0              5.3689197      81.328146    
    108000   1.3286568      3.1741453      0              5.1661573      80.079015    
    108500   1.3386973      3.2322463      0              5.2393118      80.741564    
    109000   1.2769992      3.1960891      0              5.1106525      80.31197     
    109500   1.2730372      3.1516175      0              5.060241       79.671469    
    110000   1.2626248      3.1465023      0              5.0395147      79.462425    
    110500   1.3086912      3.1333545      0              5.0954329      79.357762    
    111000   1.2377769      3.0433434      0              4.8991021      78.038934    
    111500   1.2368433      3.0727634      0              4.9271224      78.749699    
    112000   1.2395428      2.9665993      0              4.8250055      77.312062    
    112500   1.1652505      2.9872186      0              4.734241       77.3186      
    113000   1.182815       2.9836151      0              4.7569713      77.277455    
    113500   1.1227854      2.9287597      0              4.6121155      76.353234    
    114000   1.1682773      2.9016541      0              4.6532143      76.351021    
    114500   1.1498824      2.865084       0              4.5890654      75.806214    
    115000   1.1249697      2.9309472      0              4.6175778      76.62586     
    115500   1.0972507      2.8463816      0              4.491454       75.497409    
    116000   1.0866969      2.87871        0              4.5079595      75.839117    
    116500   1.0635813      2.7788571      0              4.37345        74.48683     
    117000   1.0719314      2.8115993      0              4.4187112      74.969944    
    117500   1.0623638      2.7172628      0              4.3100304      73.653907    
    118000   1.03275        2.8003569      0              4.3487256      74.79256     
    118500   1.0131765      2.6914542      0              4.2104768      73.295594    
    119000   0.99321581     2.7177274      0              4.2068237      73.583868    
    119500   0.95251324     2.6410995      0              4.0691717      72.546589    
    120000   0.96898544     2.6352564      0              4.0880248      72.655797    
    120500   0.96875725     2.5673125      0              4.0197389      71.648931    
    121000   0.93870557     2.5622948      0              3.9696656      71.549599    
    121500   0.90405598     2.5687114      0              3.9241333      71.512882    
    122000   0.89438531     2.5720752      0              3.9129981      71.647574    
    122500   0.90109761     2.4998593      0              3.8508458      70.819892    
    123000   0.92471709     2.4829908      0              3.8693892      70.413282    
    123500   0.88740535     2.4161314      0              3.7465895      69.642873    
    124000   0.84234258     2.3988547      0              3.6617516      69.237596    
    124500   0.86203864     2.3931316      0              3.6855582      69.318489    
    125000   0.8289343      2.3031159      0              3.5459103      67.974604    
    125500   0.82158123     2.3697964      0              3.6015665      68.725049    
    126000   0.80041146     2.334677       0              3.5347079      68.33264     
    126500   0.77506773     2.3078498      0              3.4698837      68.061109    
    127000   0.78411173     2.276188       0              3.4517813      67.643654    
    127500   0.74328203     2.2749368      0              3.3893154      67.544069    
    128000   0.72631701     2.2071903      0              3.2961339      66.621184    
    128500   0.75243759     2.1911738      0              3.3192791      66.353154    
    129000   0.70438512     2.139321       0              3.1953828      65.72163     
    129500   0.70654931     2.1499729      0              3.2092794      65.756574    
    130000   0.68160953     2.1142702      0              3.1361852      65.211986    
    130500   0.67161252     2.1005248      0              3.1074517      65.096658    
    131000   0.65186183     2.0738765      0              3.0511918      64.705746    
    131500   0.61663327     2.0590425      0              2.9835408      64.43224     
    132000   0.62350116     2.0296261      0              2.9644211      63.955199    
    132500   0.6014472      1.9979939      0              2.8997242      63.639712    
    133000   0.59868748     1.9704032      0              2.867996       63.304005    
    133500   0.58767124     1.9485809      0              2.8296574      63.059369    
    134000   0.57291705     1.9470155      0              2.8059714      62.998151    
    134500   0.54177645     1.8934319      0              2.7056998      62.20178     
    135000   0.52546632     1.8961175      0              2.6839322      62.13335     
    135500   0.52471931     1.82915        0              2.6158447      61.279286    
    136000   0.51980896     1.804315       0              2.5836477      60.967779    
    136500   0.50644607     1.787205       0              2.5465032      60.676947    
    137000   0.48022147     1.7744347      0              2.4944152      60.515814    
    137500   0.46365449     1.7509915      0              2.4461336      60.184161    
    138000   0.45562162     1.719281       0              2.4023797      59.784014    
    138500   0.44154962     1.6932205      0              2.3552215      59.337661    
    139000   0.43088996     1.6606703      0              2.3066897      58.907867    
    139500   0.41523867     1.6363078      0              2.2588617      58.562147    
    140000   0.39286639     1.6202316      0              2.2092434      58.353564    
    140500   0.38223314     1.5854528      0              2.1585226      57.925205    
    141000   0.36444668     1.5729398      0              2.1193429      57.643934    
    141500   0.34633645     1.5499905      0              2.0692415      57.309948    
    142000   0.33494766     1.5210591      0              2.0232352      57.065013    
    142500   0.31428027     1.5014549      0              1.9726451      56.740542    
    143000   0.31061149     1.4614689      0              1.9271587      56.249609    
    143500   0.28588268     1.4504123      0              1.8790269      56.105662    
    144000   0.27855251     1.4123797      0              1.8300044      55.595583    
    144500   0.26244936     1.3901471      0              1.783629       55.344443    
    145000   0.24601213     1.3680498      0              1.7368878      55.044115    
    145500   0.23171719     1.3411483      0              1.6885544      54.752569    
    146000   0.21589329     1.3183452      0              1.642027       54.421352    
    146500   0.20631887     1.2845659      0              1.5938931      54.038179    
    147000   0.19270792     1.2561296      0              1.5450504      53.710102    
    147500   0.17817583     1.2306482      0              1.4977814      53.404195    
    148000   0.1605809      1.2112757      0              1.4520294      53.200962    
    148500   0.14809614     1.183382       0              1.4054177      52.90385     
    149000   0.13286536     1.1586967      0              1.3578974      52.636292    
    149500   0.11369381     1.1413433      0              1.3118008      52.450692    
    150000   0.10408771     1.1095958      0              1.2656511      52.164705    
Loop time of 5.27751 on 64 procs for 100000 steps with 2048 atoms

Performance: 16371371.844 tau/day, 18948.347 timesteps/s, 38.806 Matom-step/s
99.6% CPU use with 64 MPI tasks x 1 OpenMP threads

MPI task timing breakdown:
Section |  min time  |  avg time  |  max time  |%varavg| %total
---------------------------------------------------------------
Pair    | 0.23232    | 0.25361    | 0.27961    |   2.0 |  4.81
Neigh   | 0.21297    | 0.28651    | 0.36119    |   7.9 |  5.43
Comm    | 2.5757     | 2.916      | 3.2751     |  10.3 | 55.25
Output  | 0.11015    | 0.11056    | 0.11161    |   0.1 |  2.09
Modify  | 0.43917    | 1.0193     | 1.4242     |  23.5 | 19.31
Other   |            | 0.6916     |            |       | 13.10

Nlocal:             32 ave          38 max          23 min
Histogram: 1 2 2 4 9 9 17 3 12 5
Nghost:            139 ave         148 max         133 min
Histogram: 5 5 10 7 19 3 10 1 3 1
Neighs:            192 ave         234 max         138 min
Histogram: 1 3 3 8 6 15 12 6 5 5

Total # of neighbors = 12288
Ave neighs/atom = 6
Neighbor list builds = 22259
Dangerous builds = 0
Total wall time: 0:00:08
LAMMPS (15 Sep 2022)
OMP_NUM_THREADS environment is not set. Defaulting to 1 thread. (src/comm.cpp:98)
  using 1 OpenMP thread(s) per MPI task
Lattice spacing in x,y,z = 1.5874011 1.5874011 1.5874011
Created orthogonal box = (0 0 0) to (12.699208 12.699208 12.699208)
  4 by 4 by 4 MPI processor grid
Created 2048 atoms
  using lattice units in orthogonal box = (0 0 0) to (12.699208 12.699208 12.699208)
  create_atoms CPU = 0.001 seconds
Generated 0 of 0 mixed pair_coeff terms from geometric mixing rule
Neighbor list info ...
  update: every = 1 steps, delay = 0 steps, check = yes
  max neighbors/atom: 2000, page size: 100000
  master list distance cutoff = 1.3
  ghost atom cutoff = 1.3
  binsize = 0.65, bins = 20 20 20
  1 neighbor lists, perpetual/occasional/extra = 1 0 0
  (1) pair lj/cut, perpetual
      attributes: half, newton on
      pair build: half/bin/atomonly/newton
      stencil: half/bin/3d
      bin: standard
Setting up Verlet run ...
  Unit style    : lj
  Current step  : 0
  Time step     : 0.01
Per MPI rank memory allocation (min/avg/max) = 3.063 | 3.064 | 3.064 Mbytes
   Step          Temp          E_pair         E_mol          TotEng         Press     
         0   3              0              0              4.4978027      2.9985352    
       500   3.1193696      1.9079144      0              6.584684       26.199075    
      1000   3.1290033      1.7662047      0              6.4574179      25.221416    
      1500   3.0395608      1.8497077      0              6.4068227      25.663071    
      2000   2.9591947      1.8817257      0              6.3183504      26.013858    
      2500   3.033991       1.8058391      0              6.3546034      25.220104    
      3000   3.049736       1.8603267      0              6.432697       25.831592    
      3500   2.975837       1.8159054      0              6.2774813      25.216918    
      4000   3.0152671      1.7797793      0              6.3004716      25.004137    
      4500   2.8964829      1.8736902      0              6.2162931      25.606635    
      5000   2.9439297      1.828552       0              6.2422903      25.235796    
      5500   3.0036897      1.7128072      0              6.2161417      24.476673    
      6000   2.9086181      1.8836134      0              6.2444102      26.023784    
      6500   2.9681677      1.7332188      0              6.1832964      24.417619    
      7000   3.0080881      1.7754789      0              6.2854078      25.036263    
      7500   3.0220724      1.8023505      0              6.3332457      25.053399    
      8000   2.9552588      1.8275162      0              6.25824        25.251396    
      8500   2.985094       1.8161223      0              6.2915769      25.27894     
      9000   2.9635482      1.7638252      0              6.2069769      25.026412    
      9500   2.9877348      1.8273311      0              6.306745       25.507568    
     10000   3.0003515      1.7574976      0              6.2558274      24.790667    
     10500   2.968566       1.7713772      0              6.222052       25.00273     
     11000   2.977739       1.8182011      0              6.2826286      25.322975    
     11500   3.043556       1.7936339      0              6.3567388      25.402778    
     12000   3.1501409      1.7288774      0              6.4517814      24.613817    
     12500   3.0785151      1.8033629      0              6.4188809      25.552758    
     13000   3.0166535      1.7008043      0              6.2235751      24.367027    
     13500   2.9623017      1.8830687      0              6.3243516      25.855057    
     14000   3.005154       1.7210858      0              6.2266157      24.466945    
     14500   3.1338619      1.782022       0              6.4805195      25.318768    
     15000   2.9262619      1.8012975      0              6.188547       25.010389    
     15500   2.9800775      1.8512148      0              6.3191484      25.562607    
     16000   3.0173749      1.7176363      0              6.2414887      24.734674    
     16500   2.98937        1.8541751      0              6.3360406      25.512676    
     17000   3.0572754      1.8319632      0              6.4156371      25.569705    
     17500   2.9417664      1.8650254      0              6.2755204      25.80722     
     18000   3.0241962      1.7241024      0              6.2581817      24.642679    
     18500   3.11922        1.7417896      0              6.4183349      24.698815    
     19000   3.0451585      1.7901154      0              6.3556228      25.190768    
     19500   2.972412       1.7783396      0              6.2347805      24.995593    
     20000   3.0066178      1.752945       0              6.2606696      24.845626    
     20500   2.951892       1.7883526      0              6.2140286      25.228486    
     21000   2.9783701      1.7837626      0              6.2491363      25.270031    
     21500   2.9978654      1.7701333      0              6.2647358      24.862321    
     22000   2.9938387      1.7588567      0              6.2474219      24.873617    
     22500   3.102396       1.6582534      0              6.3095752      24.084319    
     23000   2.9439665      1.9604542      0              6.3742477      26.656999    
     23500   3.0616491      1.8599685      0              6.4501998      25.586487    
     24000   2.9826004      1.8718195      0              6.3435356      26.073497    
     24500   3.1286569      1.8443945      0              6.5350884      26.057338    
     25000   2.9582061      1.8279143      0              6.2630568      25.447853    
     25500   3.0253491      1.8863651      0              6.4221728      25.867682    
     26000   2.9574195      1.8087794      0              6.2427426      25.021844    
     26500   3.0869334      1.7168666      0              6.3450056      24.582497    
     27000   2.9863974      1.6954181      0              6.1728269      24.293607    
     27500   3.037856       1.7585546      0              6.3131136      24.733877    
     28000   3.0934292      1.7530415      0              6.3909197      24.731612    
     28500   3.0032975      1.7875025      0              6.290249       25.098504    
     29000   2.9461234      1.9353927      0              6.35242        26.140067    
     29500   3.0027701      1.8181219      0              6.3200778      25.481165    
     30000   3.0810008      1.8681144      0              6.487359       25.942605    
     30500   2.9952391      1.8128958      0              6.3035607      25.456007    
     31000   3.0733664      1.8626792      0              6.4704779      26.08663     
     31500   2.9669231      1.8010719      0              6.2492835      25.264611    
     32000   2.9340083      1.8403412      0              6.2392047      25.682853    
     32500   3.0168396      1.7303606      0              6.2534104      24.58839     
     33000   3.0210609      1.8161376      0              6.3455163      25.13444     
     33500   2.9738402      1.7812163      0              6.2397986      24.959297    
     34000   3.0277217      1.7462676      0              6.2856326      24.750148    
     34500   3.0108611      1.8850965      0              6.399183       25.883487    
     35000   2.9566657      1.7101391      0              6.1429721      24.52001     
     35500   2.978509       1.8109455      0              6.2765275      25.467867    
     36000   3.0680008      1.8405264      0              6.4402805      25.634686    
     36500   3.0034332      1.7671003      0              6.2700503      25.17059     
     37000   2.9767288      1.8223082      0              6.2852211      25.34955     
     37500   3.1152944      1.845042       0              6.5157019      25.91831     
     38000   2.9145096      1.8883792      0              6.258009       25.759441    
     38500   2.9865872      1.9261228      0              6.4038161      26.205903    
ERROR: Lost atoms: original 2048 current 1894 (src/thermo.cpp:481)
Last command: run ${equil_steps}
--------------------------------------------------------------------------
Primary job  terminated normally, but 1 process returned
a non-zero exit code. Per user-direction, the job has been aborted.
--------------------------------------------------------------------------
--------------------------------------------------------------------------
mpirun detected that one or more processes exited with non-zero status, thus causing
the job to be terminated. The first process to do so was:

  Process name: [[65329,1],55]
  Exit code:    1
--------------------------------------------------------------------------
