LAMMPS (15 Sep 2022)
OMP_NUM_THREADS environment is not set. Defaulting to 1 thread. (src/comm.cpp:98)
  using 1 OpenMP thread(s) per MPI task
Lattice spacing in x,y,z = 1.7099759 1.7099759 1.7099759
Created orthogonal box = (0 0 0) to (13.679808 13.679808 13.679808)
  4 by 4 by 4 MPI processor grid
Created 2048 atoms
  using lattice units in orthogonal box = (0 0 0) to (13.679808 13.679808 13.679808)
  create_atoms CPU = 0.001 seconds
Generated 0 of 0 mixed pair_coeff terms from geometric mixing rule
Neighbor list info ...
  update: every = 1 steps, delay = 0 steps, check = yes
  max neighbors/atom: 2000, page size: 100000
  master list distance cutoff = 1.3
  ghost atom cutoff = 1.3
  binsize = 0.65, bins = 22 22 22
  1 neighbor lists, perpetual/occasional/extra = 1 0 0
  (1) pair lj/cut, perpetual
      attributes: half, newton on
      pair build: half/bin/atomonly/newton
      stencil: half/bin/3d
      bin: standard
Setting up Verlet run ...
  Unit style    : lj
  Current step  : 0
  Time step     : 0.01
Per MPI rank memory allocation (min/avg/max) = 3.064 | 3.064 | 3.064 Mbytes
   Step          Temp          E_pair         E_mol          TotEng         Press     
         0   3              0              0              4.4978027      2.3988281    
       500   3.0231134      0.98847002     0              5.5209259      12.437367    
      1000   3.0245927      0.95086202     0              5.4855358      12.117785    
      1500   2.9719524      0.91587089     0              5.3716228      11.784718    
      2000   2.9160184      0.98969318     0              5.361585       12.123286    
      2500   2.8800047      1.0013772      0              5.3192749      12.353156    
      3000   2.9188775      0.98839439     0              5.3645727      12.284291    
      3500   2.9681873      0.95704857     0              5.4071556      12.087692    
      4000   2.9956386      0.96534211     0              5.4566059      12.226815    
      4500   3.0167893      0.99752654     0              5.5205009      12.289299    
      5000   3.0017236      0.93393932     0              5.4343262      12.124884    
      5500   2.9815475      1.0579672      0              5.5281047      12.828496    
      6000   3.0405727      0.96399226     0              5.5226243      12.424632    
      6500   2.9495608      0.95572238     0              5.3779033      12.129593    
      7000   2.9516914      0.93134667     0              5.3567218      11.947796    
      7500   2.9311125      0.93232506     0              5.326847       11.965631    
      8000   3.0006938      0.8842927      0              5.3831356      11.491062    
      8500   3.040592       0.90765639     0              5.4663174      11.80556     
      9000   3.0566443      0.93786477     0              5.5205925      12.188636    
      9500   3.1075154      0.92730307     0              5.5863001      12.027871    
     10000   3.0147214      1.0074494      0              5.5273234      12.506002    
     10500   3.0477611      0.99959503     0              5.5690044      12.432081    
     11000   3.1275769      1.007304       0              5.6963786      12.655373    
     11500   2.9999106      0.98854789     0              5.4862167      12.43868     
     12000   3.003467       1.0463995      0              5.5494001      12.794814    
     12500   2.9324797      1.0304886      0              5.4270603      12.60652     
     13000   3.0101686      0.99029853     0              5.5033468      12.369373    
     13500   3.0718369      0.96376395     0              5.5692695      12.278841    
     14000   2.9861998      1.0591989      0              5.5363113      12.780274    
     14500   3.0456316      0.97381482     0              5.5400315      12.39344     
     15000   3.0321336      1.0139766      0              5.5599562      12.649315    
     15500   3.0438364      1.0069363      0              5.5704615      12.614244    
     16000   3.1106913      0.92476289     0              5.5885216      12.032944    
     16500   3.0129689      1.0840249      0              5.6012715      12.912405    
     17000   2.9750166      0.98575389     0              5.4460998      12.41675     
     17500   2.9111031      0.99907478     0              5.3635973      12.495769    
     18000   3.0081724      0.97145475     0              5.4815101      12.250018    
     18500   2.9274521      0.96449991     0              5.3535339      12.090963    
     19000   3.0340435      0.90301855     0              5.4518616      11.804674    
     19500   2.9055407      0.92111824     0              5.2773012      11.884206    
     20000   2.9719353      0.9451745      0              5.4009007      11.97993     
     20500   3.0012301      0.94118888     0              5.4408359      12.030054    
     21000   2.9376478      0.98203538     0              5.3863555      12.408438    
     21500   2.935303       0.93753182     0              5.3383365      11.990964    
     22000   3.0219858      0.95735704     0              5.4881224      12.253556    
     22500   3.0544418      1.0014957      0              5.5809212      12.63427     
     23000   2.9917668      1.0343686      0              5.5198276      12.633049    
     23500   3.0962239      0.91323285     0              5.5553009      11.930329    
     24000   2.989242       1.0734355      0              5.5551091      13.064888    
     24500   3.0252425      1.0146453      0              5.5502932      12.738874    
     25000   3.0079091      0.93540344     0              5.445064       11.899718    
     25500   3.0378082      0.90737139     0              5.4618588      11.918439    
     26000   3.0054802      1.0009313      0              5.5069503      12.391039    
     26500   2.9497092      1.0005566      0              5.42296        12.246317    
     27000   2.9842322      1.0157696      0              5.4899322      12.613635    
     27500   3.0640919      0.99010532     0              5.5839989      12.562845    
     28000   3.0840341      1.0124887      0              5.636281       12.65213     
     28500   3.1230216      0.97365021     0              5.6558952      12.296435    
     29000   3.0175754      1.0680113      0              5.5921642      13.043694    
     29500   2.9737231      0.9454103      0              5.403817       12.139172    
     30000   2.9024631      1.0149851      0              5.3665539      12.391372    
     30500   2.8864957      1.013848       0              5.3414775      12.453619    
     31000   2.9899571      0.98152583     0              5.4642716      12.235287    
     31500   3.03831        1.0075138      0              5.5627534      12.426459    
     32000   3.1376578      0.95333953     0              5.6575281      12.220914    
     32500   3.091179       0.99822335     0              5.6327278      12.570844    
     33000   3.0050123      1.0185605      0              5.523878       12.702911    
     33500   3.0562816      0.93337852     0              5.5155624      12.025589    
     34000   2.9504579      1.0009615      0              5.4244874      12.554731    
     34500   3.0526657      0.90817602     0              5.4849388      11.843445    
     35000   3.109334       0.91633718     0              5.5780609      11.900616    
     35500   2.9838149      1.0133431      0              5.48688        12.546272    
     36000   3.0460417      0.97540674     0              5.5422383      12.335351    
     36500   3.0233712      0.9662552      0              5.4990976      12.115255    
     37000   3.0512957      1.0063914      0              5.5811001      12.804066    
     37500   3.0679297      0.97687014     0              5.5765177      12.328289    
     38000   2.9734003      0.96473898     0              5.4226616      12.176588    
     38500   2.997786       0.92581715     0              5.4203005      12.006567    
     39000   2.9902944      0.96698732     0              5.4502387      12.216906    
     39500   2.9699727      1.0400225      0              5.4928063      12.755896    
     40000   3.0332479      0.96925733     0              5.5169075      12.25728     
     40500   3.0352222      1.0501016      0              5.6007119      12.914152    
     41000   2.8939478      1.0222953      0              5.3610974      12.59037     
     41500   2.9472804      1.0089377      0              5.4276996      12.491191    
     42000   2.9541489      0.95026522     0              5.3793248      11.958137    
     42500   3.0102274      0.91552862     0              5.428665       12.131294    
     43000   2.9478573      0.97735375     0              5.3969807      12.295067    
     43500   2.9863161      0.9933739      0              5.4706608      12.407389    
     44000   2.9973864      0.97833458     0              5.4722189      12.39329     
     44500   3.0441701      0.98504753     0              5.549073       12.344344    
     45000   3.0008397      0.96817392     0              5.4672356      12.32105     
     45500   2.9062142      0.95454695     0              5.3117397      11.89274     
     46000   2.9881694      0.90873669     0              5.3888022      11.757979    
     46500   3.0303081      0.9393373      0              5.48258        12.025348    
     47000   3.0985726      0.90448029     0              5.5500697      11.906376    
     47500   2.9904992      1.0745088      0              5.5580672      13.041775    
     48000   3.0014663      1.0291154      0              5.5291166      12.679789    
     48500   3.0527347      1.0206637      0              5.5975299      12.746053    
     49000   3.0525837      0.97253129     0              5.549171       12.293625    
     49500   2.9364564      0.93757309     0              5.3401069      12.02519     
     50000   2.9222734      0.98035513     0              5.3616249      12.299514    
Loop time of 2.7118 on 64 procs for 50000 steps with 2048 atoms

Performance: 15930369.761 tau/day, 18437.928 timesteps/s, 37.761 Matom-step/s
99.6% CPU use with 64 MPI tasks x 1 OpenMP threads

MPI task timing breakdown:
Section |  min time  |  avg time  |  max time  |%varavg| %total
---------------------------------------------------------------
Pair    | 0.055081   | 0.061194   | 0.067171   |   1.2 |  2.26
Neigh   | 0.2859     | 0.29141    | 0.2963     |   0.5 | 10.75
Comm    | 1.3738     | 1.5235     | 1.6994     |   7.9 | 56.18
Output  | 0.0036679  | 0.0038235  | 0.0057866  |   0.4 |  0.14
Modify  | 0.2204     | 0.49633    | 0.6555     |  16.4 | 18.30
Other   |            | 0.3355     |            |       | 12.37

Nlocal:             32 ave          40 max          27 min
Histogram: 3 3 10 24 11 5 5 2 0 1
Nghost:        142.406 ave         154 max         133 min
Histogram: 4 9 7 7 10 11 4 6 5 1
Neighs:        117.719 ave         166 max          93 min
Histogram: 3 14 10 14 15 4 0 3 0 1

Total # of neighbors = 7534
Ave neighs/atom = 3.6787109
Neighbor list builds = 20251
Dangerous builds = 0
Generated 0 of 0 mixed pair_coeff terms from geometric mixing rule
Setting up Verlet run ...
  Unit style    : lj
  Current step  : 50000
  Time step     : 0.01
Per MPI rank memory allocation (min/avg/max) = 3.106 | 3.106 | 3.106 Mbytes
   Step          Temp          E_pair         E_mol          TotEng         Press     
     50000   2.9222734      0.98035513     0              5.3616249      12.299514    
     50500   2.9954263      0.91996908     0              5.4109145      11.831276    
     51000   2.9497132      0.9853094      0              5.4077188      12.353628    
     51500   2.9227835      0.9234863      0              5.3055208      11.829344    
     52000   2.8856311      0.97983138     0              5.3061645      12.3136      
     52500   2.9629452      0.93672109     0              5.3789687      12.067488    
     53000   2.9505377      0.92302567     0              5.3466712      11.810977    
     53500   2.9777879      0.90228036     0              5.3667813      11.823441    
     54000   2.954328       0.96207775     0              5.3914059      12.100025    
     54500   2.91715        0.93467788     0              5.3082663      11.90352     
     55000   2.9257716      0.94204771     0              5.3285623      12.065696    
     55500   2.8219851      0.95045959     0              5.1813703      11.837767    
     56000   2.8341748      0.9476207      0              5.196807       12.020302    
     56500   2.8178138      0.99309185     0              5.2177487      12.297721    
     57000   2.8421008      0.88329266     0              5.1443622      11.543648    
     57500   2.8507382      0.92417961     0              5.198199       11.908356    
     58000   2.7581411      0.86471056     0              4.9999021      11.382567    
     58500   2.7247903      0.91846331     0              5.0036531      11.802677    
     59000   2.7652223      0.92766292     0              5.073471       11.687674    
     59500   2.7339739      0.90869063     0              5.0076491      11.597989    
     60000   2.7706732      0.84138524     0              4.9953657      11.08906     
     60500   2.6519889      0.88414399     0              4.8601849      11.279365    
     61000   2.7129287      0.80892447     0              4.8763306      10.805778    
     61500   2.7021017      0.84750369     0              4.8986772      11.136847    
     62000   2.6219301      0.83864607     0              4.7696209      10.878589    
     62500   2.651904       0.82348444     0              4.7993982      10.930413    
     63000   2.5931154      0.74723163     0              4.6350055      10.287781    
     63500   2.577927       0.85374152     0              4.7187438      11.16539     
     64000   2.585394       0.77515003     0              4.6513474      10.344273    
     64500   2.5332907      0.81875971     0              4.6168403      10.669006    
     65000   2.5328837      0.8283502      0              4.6258206      10.796798    
     65500   2.4036924      0.81292826     0              4.4167064      10.589735    
     66000   2.5218282      0.72945317     0              4.5103484      9.9508033    
     66500   2.4594838      0.85541988     0              4.5428442      10.921599    
     67000   2.4863141      0.79842586     0              4.526076       10.452692    
     67500   2.4224139      0.80365939     0              4.4355059      10.563784    
     68000   2.4869491      0.76604674     0              4.4946489      10.196315    
     68500   2.436254       0.77442175     0              4.4270184      10.32642     
     69000   2.4065708      0.73076172     0              4.3388553      10.074718    
     69500   2.4094795      0.75391936     0              4.3663738      10.140263    
     70000   2.3909235      0.72887243     0              4.3135065      9.9487449    
     70500   2.3615691      0.77276309     0              4.313387       10.21705     
     71000   2.3564224      0.74629741     0              4.2792052      10.162194    
     71500   2.345455       0.75438385     0              4.2708485      10.159928    
     72000   2.3322543      0.74946002     0              4.2461333      10.135335    
     72500   2.3802517      0.75208848     0              4.3207226      10.119877    
     73000   2.3748266      0.71141445     0              4.271915       9.7387523    
     73500   2.3324873      0.79960477     0              4.2966274      10.393802    
     74000   2.3364298      0.73277186     0              4.2357054      9.9245629    
     74500   2.3134391      0.74438775     0              4.212852       9.9852769    
     75000   2.3244307      0.74818846     0              4.233132       10.092946    
     75500   2.3366114      0.72841118     0              4.2316169      9.860242     
     76000   2.2878731      0.69127279     0              4.1214068      9.6939537    
     76500   2.2452704      0.70972376     0              4.0759849      9.6458912    
     77000   2.2688564      0.67836497     0              4.0799878      9.472474     
     77500   2.3047329      0.68098098     0              4.1363923      9.6596335    
     78000   2.1806355      0.65243994     0              3.9217961      9.1114528    
     78500   2.1618364      0.67601297     0              3.9171842      9.4406473    
     79000   2.14122        0.66224564     0              3.8725074      9.1693451    
     79500   2.073621       0.66305184     0              3.7719646      9.3202738    
     80000   2.1277472      0.63616629     0              3.8262287      8.9877083    
     80500   2.1556226      0.64984239     0              3.8816975      9.0076754    
     81000   2.1009869      0.64166423     0              3.7916057      9.0151305    
     81500   2.1123039      0.62938089     0              3.7962896      8.8524369    
     82000   2.0616252      0.65323956     0              3.7441674      9.2645722    
     82500   2.0464232      0.64966245     0              3.7177983      9.0642442    
     83000   2.0218874      0.58455563     0              3.6159059      8.5444173    
     83500   2.0058461      0.65565412     0              3.6629542      9.0528268    
     84000   2.024428       0.61194867     0              3.6471079      8.6252378    
     84500   2.0114673      0.63474695     0              3.6504747      8.8793069    
     85000   2.0349862      0.57379558     0              3.6247844      8.3903949    
     85500   2.0381875      0.57981802     0              3.6356064      8.5130647    
     86000   1.9470778      0.64216748     0              3.5613581      8.8906488    
     86500   1.8982838      0.58963453     0              3.4356699      8.4749021    
     87000   1.8681609      0.56804075     0              3.3689138      8.2271729    
     87500   1.884947       0.58062097     0              3.4066609      8.2742976    
     88000   1.9270237      0.53359213     0              3.4227163      7.9198866    
     88500   1.8908799      0.56204689     0              3.3969818      8.2624814    
     89000   1.8443904      0.60133795     0              3.3665728      8.4366263    
     89500   1.8402967      0.55303476     0              3.312132       7.9718765    
     90000   1.8102157      0.53010244     0              3.2441002      7.8422911    
     90500   1.8368705      0.5219355      0              3.2758959      7.7216037    
     91000   1.8168784      0.51602379     0              3.2400107      7.8213581    
     91500   1.7526225      0.52917997     0              3.1568301      7.8088783    
     92000   1.7868176      0.52033472     0              3.1992524      7.7873881    
     92500   1.7638827      0.50543807     0              3.1499703      7.5627559    
     93000   1.718845       0.52190432     0              3.0989129      7.6274608    
     93500   1.7314695      0.51872695     0              3.114663       7.6586343    
     94000   1.7106251      0.49480544     0              3.0594902      7.4304253    
     94500   1.6828446      0.48280116     0              3.0058355      7.4363726    
     95000   1.6689788      0.48265731     0              2.9849032      7.3253177    
     95500   1.6530791      0.49264566     0              2.9710536      7.4523593    
     96000   1.6168785      0.44259836     0              2.8667318      6.9810974    
     96500   1.6450964      0.47295014     0              2.9393898      7.2933843    
     97000   1.6411605      0.48520744     0              2.9457462      7.3047843    
     97500   1.6633921      0.49079905     0              2.984669       7.4801053    
     98000   1.6291208      0.4890691      0              2.9315571      7.3867795    
     98500   1.6261259      0.4575522      0              2.8955501      7.0531187    
     99000   1.627688       0.45251768     0              2.8928575      7.0606696    
     99500   1.5859177      0.46747415     0              2.8451892      7.1946942    
    100000   1.5557419      0.45274224     0              2.7852156      6.8735642    
    100500   1.563836       0.4660785      0              2.8106871      7.0341408    
    101000   1.5359974      0.42910372     0              2.7319748      6.7389759    
    101500   1.5412329      0.44374213     0              2.7544626      6.8991518    
    102000   1.4860169      0.45631185     0              2.6842487      6.9791299    
    102500   1.5252042      0.43866154     0              2.7253508      6.7930698    
    103000   1.4751049      0.43607176     0              2.6476487      6.8056914    
    103500   1.4919148      0.41964083     0              2.6564203      6.521861     
    104000   1.4553343      0.43816841     0              2.620104       6.7829675    
    104500   1.4459202      0.40251302     0              2.5703343      6.3686604    
    105000   1.4092249      0.42780796     0              2.5406132      6.760506     
    105500   1.4369799      0.42219497     0              2.5766123      6.5893819    
    106000   1.403509       0.38673152     0              2.4909671      6.2295489    
    106500   1.3719458      0.39309977     0              2.4500136      6.3126051    
    107000   1.3507423      0.40172481     0              2.426849       6.3648446    
    107500   1.3576115      0.40482993     0              2.4402529      6.4050508    
    108000   1.334188       0.35984827     0              2.3601531      6.0302397    
    108500   1.324383       0.3574136      0              2.3430181      5.9728437    
    109000   1.2608119      0.39394155     0              2.284236       6.2525567    
    109500   1.2842779      0.33492923     0              2.2604055      5.6744555    
    110000   1.2709546      0.31673825     0              2.2222393      5.5080123    
    110500   1.2121282      0.35163509     0              2.1689395      5.8530581    
    111000   1.2313334      0.33709668     0              2.183195       5.6580304    
    111500   1.2192497      0.33470089     0              2.1626824      5.6746386    
    112000   1.2144146      0.34436057     0              2.165093       5.6602557    
    112500   1.2205559      0.31527992     0              2.1452197      5.4604055    
    113000   1.2083246      0.33106637     0              2.1426683      5.6815163    
    113500   1.1557014      0.30009817     0              2.0328039      5.2686471    
    114000   1.1648135      0.28783196     0              2.0341991      5.1360581    
    114500   1.1540635      0.31054756     0              2.0407975      5.2892793    
    115000   1.1062858      0.30739467     0              1.9660132      5.3238373    
    115500   1.0940065      0.2910326      0              1.9312411      5.0072125    
    116000   1.0594147      0.27821938     0              1.8665655      4.9344248    
    116500   1.038497       0.3144328      0              1.8714177      5.1841822    
    117000   1.0504413      0.27892865     0              1.8538212      4.9177331    
    117500   1.0266772      0.27430081     0              1.8135646      4.7964268    
    118000   1.0395737      0.26736205     0              1.8259611      4.7705807    
    118500   1.0080058      0.2892326      0              1.8005031      5.0211132    
    119000   0.96496728     0.24661095     0              1.6933551      4.5121313    
    119500   0.96998078     0.26706922     0              1.72133        4.7203393    
    120000   0.93328935     0.22932815     0              1.6285786      4.3142516    
    120500   0.9405081      0.25430498     0              1.6643783      4.5872318    
    121000   0.93627875     0.23874971     0              1.6424821      4.4724462    
    121500   0.93273951     0.2361922      0              1.6346183      4.4712014    
    122000   0.93147903     0.23969422     0              1.6362305      4.4731523    
    122500   0.91991151     0.21730782     0              1.5965013      4.1044961    
    123000   0.89503769     0.23436238     0              1.5762634      4.3362886    
    123500   0.86546684     0.21481702     0              1.5123834      4.0528932    
    124000   0.85986627     0.20508942     0              1.494259       3.9598141    
    124500   0.85482109     0.20473533     0              1.4863409      3.9445663    
    125000   0.85616405     0.20006105     0              1.48368        3.9250038    
    125500   0.82386495     0.2259148      0              1.4611088      4.1795036    
    126000   0.78562647     0.19346036     0              1.3713247      3.7959024    
    126500   0.78759229     0.18566011     0              1.3664717      3.733126     
    127000   0.76438624     0.18700846     0              1.333028       3.7213373    
    127500   0.75016807     0.18553737     0              1.31024        3.7171239    
    128000   0.75876309     0.19012565     0              1.3277146      3.7247526    
    128500   0.72181074     0.16635211     0              1.2485396      3.4559653    
    129000   0.70605224     0.16897196     0              1.2275332      3.4495374    
    129500   0.67553448     0.16268163     0              1.1754886      3.4036277    
    130000   0.67132587     0.16427393     0              1.170771       3.4495622    
    130500   0.66006335     0.15171812     0              1.1413297      3.2849799    
    131000   0.63950085     0.15589917     0              1.1146821      3.2602659    
    131500   0.62785847     0.14190686     0              1.0832347      3.0909476    
    132000   0.61060892     0.1533674      0              1.0688336      3.2804388    
    132500   0.61053767     0.14451837     0              1.0598777      3.1302141    
    133000   0.59942268     0.14407571     0              1.0427707      3.0798086    
    133500   0.5842397      0.13727442     0              1.0132061      3.0312563    
    134000   0.56733        0.12954303     0              0.98012251     2.9324456    
    134500   0.55242549     0.11127744     0              0.93951106     2.5842839    
    135000   0.53577729     0.10994324     0              0.91321676     2.5576046    
    135500   0.51188701     0.10871923     0              0.87617482     2.5523708    
    136000   0.50567918     0.11544329     0              0.87359169     2.594106     
    136500   0.50756813     0.11572899     0              0.87670942     2.6689603    
    137000   0.47778802     0.10024108     0              0.81657316     2.4346479    
    137500   0.46765951     0.099394529    0              0.80054127     2.3998847    
    138000   0.45491207     0.10135825     0              0.78339316     2.3950905    
    138500   0.44271804     0.091816035    0              0.75556884     2.2408205    
    139000   0.41224561     0.087324609    0              0.70539109     2.1773643    
    139500   0.40539506     0.070762196    0              0.67855786     1.8932332    
    140000   0.39170988     0.076157447    0              0.66343537     2.0098193    
    140500   0.39126475     0.0665816      0              0.65319215     1.83304      
    141000   0.35863659     0.070822784    0              0.608515       1.8558168    
    141500   0.35059441     0.068598019    0              0.59423285     1.8365847    
    142000   0.33449811     0.070410935    0              0.5719131      1.8677547    
    142500   0.32582853     0.063061373    0              0.55156552     1.7300136    
    143000   0.29780873     0.057085796    0              0.50358077     1.612136     
    143500   0.28895423     0.052768711    0              0.48598842     1.5046983    
    144000   0.27028989     0.047175602    0              0.45241248     1.4180042    
    144500   0.26173734     0.045095535    0              0.43750985     1.3502883    
    145000   0.24411083     0.0405092      0              0.40649666     1.2858285    
    145500   0.23406875     0.035227369    0              0.38615905     1.1897469    
    146000   0.21130457     0.035275322    0              0.35207741     1.1527157    
    146500   0.20356012     0.029419916    0              0.334611       1.0165791    
    147000   0.18051857     0.029464575    0              0.30011021     1.0400447    
    147500   0.17395282     0.02490556     0              0.28570739     0.8940178    
    148000   0.15912082     0.020844807    0              0.2594095      0.81421417   
    148500   0.14522077     0.020016404    0              0.23774119     0.79550346   
    149000   0.12964637     0.019405742    0              0.21378034     0.77331581   
    149500   0.11718951     0.013592117    0              0.18929055     0.60940518   
    150000   0.10232949     0.011541542    0              0.16496083     0.53573077   
Loop time of 5.04239 on 64 procs for 100000 steps with 2048 atoms

Performance: 17134724.882 tau/day, 19831.858 timesteps/s, 40.616 Matom-step/s
99.6% CPU use with 64 MPI tasks x 1 OpenMP threads

MPI task timing breakdown:
Section |  min time  |  avg time  |  max time  |%varavg| %total
---------------------------------------------------------------
Pair    | 0.098416   | 0.11043    | 0.12211    |   1.8 |  2.19
Neigh   | 0.40104    | 0.4093     | 0.41645    |   0.6 |  8.12
Comm    | 2.4703     | 2.7699     | 3.1176     |  11.5 | 54.93
Output  | 0.10864    | 0.10879    | 0.1105     |   0.1 |  2.16
Modify  | 0.41999    | 0.97258    | 1.2966     |  23.3 | 19.29
Other   |            | 0.6714     |            |       | 13.31

Nlocal:             32 ave          40 max          26 min
Histogram: 2 5 12 6 8 22 6 2 0 1
Nghost:        142.391 ave         152 max         130 min
Histogram: 1 2 2 11 7 15 9 9 0 8
Neighs:        122.531 ave         156 max          95 min
Histogram: 3 2 9 14 11 9 11 2 1 2

Total # of neighbors = 7842
Ave neighs/atom = 3.8291016
Neighbor list builds = 28373
Dangerous builds = 0
Total wall time: 0:00:07
LAMMPS (15 Sep 2022)
OMP_NUM_THREADS environment is not set. Defaulting to 1 thread. (src/comm.cpp:98)
  using 1 OpenMP thread(s) per MPI task
Lattice spacing in x,y,z = 1.6441414 1.6441414 1.6441414
Created orthogonal box = (0 0 0) to (13.153131 13.153131 13.153131)
  4 by 4 by 4 MPI processor grid
Created 2048 atoms
  using lattice units in orthogonal box = (0 0 0) to (13.153131 13.153131 13.153131)
  create_atoms CPU = 0.001 seconds
Generated 0 of 0 mixed pair_coeff terms from geometric mixing rule
Neighbor list info ...
  update: every = 1 steps, delay = 0 steps, check = yes
  max neighbors/atom: 2000, page size: 100000
  master list distance cutoff = 1.3
  ghost atom cutoff = 1.3
  binsize = 0.65, bins = 21 21 21
  1 neighbor lists, perpetual/occasional/extra = 1 0 0
  (1) pair lj/cut, perpetual
      attributes: half, newton on
      pair build: half/bin/atomonly/newton
      stencil: half/bin/3d
      bin: standard
Setting up Verlet run ...
  Unit style    : lj
  Current step  : 0
  Time step     : 0.01
Per MPI rank memory allocation (min/avg/max) = 3.063 | 3.063 | 3.063 Mbytes
   Step          Temp          E_pair         E_mol          TotEng         Press     
         0   3              0              0              4.4978027      2.6986816    
       500   3.1134313      1.3118897      0              5.9797563      17.613088    
      1000   3.0434245      1.3717611      0              5.9346688      18.160225    
      1500   3.0155801      1.3777366      0              5.898898       18.162765    
      2000   3.0235191      1.4150819      0              5.9481461      18.435476    
      2500   2.9205897      1.4398421      0              5.8185875      18.608627    
      3000   2.9086262      1.263112       0              5.623921       17.024411    
      3500   3.0056914      1.2777187      0              5.7840544      17.402865    
      4000   3.0153491      1.3005626      0              5.8213777      17.467245    
      4500   2.9609974      1.3510658      0              5.7903932      17.893863    
      5000   3.0634988      1.3549959      0              5.9480004      17.750534    
      5500   3.0192206      1.3749634      0              5.901583       18.074669    
      6000   2.9298878      1.3341358      0              5.7268216      17.562295    
      6500   2.8987001      1.3574702      0              5.7033973      17.883375    
      7000   2.9521769      1.2853008      0              5.7114039      17.204422    
      7500   2.9456982      1.3128631      0              5.7292529      17.465053    
      8000   2.9744513      1.3134906      0              5.7729889      17.520603    
      8500   2.9734114      1.2464476      0              5.7043868      17.02263     
      9000   2.953099       1.4043511      0              5.8318366      18.1332      
      9500   3.0042326      1.2702282      0              5.7743767      17.151264    
     10000   2.9804998      1.31656        0              5.7851267      17.429673    
     10500   2.977013       1.3197038      0              5.7830428      17.658886    
     11000   3.0017966      1.2818513      0              5.7823476      17.274511    
     11500   2.9787583      1.3395436      0              5.8054993      17.680952    
     12000   3.024163       1.324309       0              5.8583385      17.65641     
     12500   3.0083011      1.336961       0              5.8472094      17.788573    
     13000   3.0701432      1.3386404      0              5.9416066      17.679997    
     13500   3.0422616      1.3811152      0              5.9422794      18.246197    
     14000   3.0010287      1.3178607      0              5.8172056      17.707862    
     14500   3.0125114      1.3037509      0              5.8203116      17.521413    
     15000   2.9346795      1.322791       0              5.7226609      17.479938    
     15500   2.9871241      1.3427413      0              5.8212396      17.676981    
     16000   2.9678602      1.3613662      0              5.8109827      17.948802    
     16500   2.999544       1.3472983      0              5.8444174      17.912832    
     17000   3.0661764      1.3858137      0              5.9828326      18.107143    
     17500   3.059719       1.2597929      0              5.8471304      17.254477    
     18000   3.0694126      1.3398985      0              5.9417693      17.723289    
     18500   2.9750324      1.3837468      0              5.8441164      18.100325    
     19000   3.0071021      1.341603       0              5.8500537      17.909081    
     19500   3.0632825      1.2566293      0              5.8493095      17.078427    
     20000   3.037845       1.3088134      0              5.863356       17.628523    
     20500   3.009372       1.4156822      0              5.9275361      18.308481    
     21000   3.008108       1.3323682      0              5.842327       17.678888    
     21500   2.9881528      1.3600213      0              5.840062       17.882871    
     22000   3.0739944      1.4149472      0              6.0236873      18.228556    
     22500   2.9941894      1.2378472      0              5.7269383      16.799327    
     23000   3.0054943      1.2873706      0              5.7934108      17.325415    
     23500   2.9562695      1.2736818      0              5.7059208      17.221428    
     24000   3.0166574      1.3072714      0              5.8300481      17.439982    
     24500   3.0188696      1.333676       0              5.8597693      17.755216    
     25000   2.9832043      1.2914465      0              5.764068       17.542028    
     25500   2.9844778      1.2842661      0              5.7587968      17.116773    
     26000   3.0420565      1.2784924      0              5.8393491      17.275297    
     26500   3.026232       1.2854799      0              5.8226114      17.300546    
     27000   2.9585599      1.4373548      0              5.8730277      18.499312    
     27500   3.0386682      1.3674329      0              5.9232097      17.970638    
     28000   3.0060695      1.3498668      0              5.8567694      17.797134    
     28500   3.039555       1.2676236      0              5.8247299      17.11997     
     29000   3.0485751      1.3729336      0              5.9435634      18.214887    
     29500   2.9931909      1.2132076      0              5.7008016      16.848104    
     30000   3.0344113      1.2742863      0              5.8236808      17.289391    
     30500   2.9971375      1.3309831      0              5.8244942      17.842763    
     31000   2.9715476      1.3682253      0              5.8233703      18.235707    
     31500   2.9564442      1.2909157      0              5.7234166      17.362346    
     32000   3.0079949      1.3004593      0              5.8102485      17.42955     
     32500   2.9641045      1.3495457      0              5.7935315      17.735444    
     33000   3.0024282      1.3213685      0              5.8228117      17.577298    
     33500   2.9793381      1.3464103      0              5.8132354      17.787043    
     34000   3.0708825      1.3022745      0              5.906349       17.535481    
     34500   3.0115943      1.2622988      0              5.7774844      17.219888    
     35000   3.0445618      1.3007466      0              5.8653593      17.578733    
     35500   2.9517168      1.2769057      0              5.7023191      17.305384    
     36000   3.0400245      1.2484039      0              5.8062141      17.029994    
     36500   3.0320047      1.326806       0              5.8725923      17.690575    
     37000   3.0366324      1.2748846      0              5.827609       17.190676    
     37500   2.9445867      1.3621691      0              5.7768925      18.005107    
     38000   2.9735672      1.3255835      0              5.7837563      17.690209    
     38500   2.9757307      1.302679       0              5.7640956      17.504379    
     39000   2.9622259      1.3431332      0              5.7843024      17.724047    
     39500   2.9614         1.3996089      0              5.8395399      17.943453    
     40000   3.1049071      1.2708643      0              5.9259508      17.193167    
     40500   3.0636253      1.3350539      0              5.928248       17.857691    
     41000   3.0329665      1.2610237      0              5.808252       17.202943    
     41500   2.9137539      1.2887303      0              5.657227       17.25898     
     42000   2.9961796      1.2099325      0              5.7020075      16.555959    
     42500   2.9445149      1.2609449      0              5.6755606      17.197318    
     43000   2.9406872      1.2624845      0              5.6713614      17.084902    
     43500   3.0046445      1.3109614      0              5.8157275      17.505482    
     44000   2.9905156      1.4048292      0              5.8884123      18.401814    
     44500   2.946346       1.4213676      0              5.8387286      18.179984    
     45000   3.0670265      1.3057491      0              5.9040425      17.421762    
     45500   3.0769361      1.356671       0              5.9698216      17.938967    
     46000   3.0323951      1.385166       0              5.9315377      18.192918    
     46500   3.0571326      1.3900769      0              5.9735367      18.325496    
     47000   2.9835172      1.2981204      0              5.7712111      17.359242    
     47500   3.0133216      1.3754043      0              5.8931796      17.980373    
     48000   3.1204502      1.2989003      0              5.9772902      17.400797    
     48500   2.9901563      1.4306064      0              5.9136508      18.345264    
     49000   3.1330572      1.3922587      0              6.0895497      18.357234    
     49500   2.9726367      1.3683726      0              5.8251504      18.236461    
     50000   3.0504952      1.3998623      0              5.9733709      18.277089    
Loop time of 2.81305 on 64 procs for 50000 steps with 2048 atoms

Performance: 15357002.870 tau/day, 17774.309 timesteps/s, 36.402 Matom-step/s
99.5% CPU use with 64 MPI tasks x 1 OpenMP threads

MPI task timing breakdown:
Section |  min time  |  avg time  |  max time  |%varavg| %total
---------------------------------------------------------------
Pair    | 0.06485    | 0.071355   | 0.0785     |   1.3 |  2.54
Neigh   | 0.31223    | 0.31625    | 0.33965    |   0.7 | 11.24
Comm    | 1.4052     | 1.5644     | 1.7535     |   8.0 | 55.61
Output  | 0.0038745  | 0.0040149  | 0.0067654  |   0.6 |  0.14
Modify  | 0.24361    | 0.51487    | 0.68195    |  16.3 | 18.30
Other   |            | 0.3422     |            |       | 12.16

Nlocal:             32 ave          39 max          27 min
Histogram: 7 4 3 13 10 21 2 2 1 1
Nghost:        151.469 ave         160 max         143 min
Histogram: 2 8 7 5 11 9 6 7 4 5
Neighs:        135.531 ave         176 max         105 min
Histogram: 5 5 8 10 13 9 8 3 1 2

Total # of neighbors = 8674
Ave neighs/atom = 4.2353516
Neighbor list builds = 20326
Dangerous builds = 0
Generated 0 of 0 mixed pair_coeff terms from geometric mixing rule
Setting up Verlet run ...
  Unit style    : lj
  Current step  : 50000
  Time step     : 0.01
Per MPI rank memory allocation (min/avg/max) = 3.105 | 3.105 | 3.105 Mbytes
   Step          Temp          E_pair         E_mol          TotEng         Press     
     50000   3.0504952      1.3998623      0              5.9733709      18.277089    
     50500   2.9460877      1.3328601      0              5.7498338      17.653606    
     51000   3.0083661      1.322118       0              5.8324638      17.63248     
     51500   2.9949218      1.2854062      0              5.7755954      17.268863    
     52000   3.0581084      1.2960509      0              5.8809737      17.330501    
     52500   2.906059       1.2360893      0              5.5930493      16.730377    
     53000   2.8886149      1.271411       0              5.6022176      17.110406    
     53500   2.8892464      1.2143306      0              5.546084       16.754397    
     54000   2.8782732      1.2387232      0              5.554025       16.785451    
     54500   2.8706641      1.1769607      0              5.4808544      16.183315    
     55000   2.8101993      1.2697303      0              5.482971       17.107027    
     55500   2.7727843      1.2503178      0              5.4074633      16.822488    
     56000   2.8186389      1.2007994      0              5.4266933      16.412228    
     56500   2.7538297      1.3068317      0              5.4355594      17.443831    
     57000   2.8253826      1.2208742      0              5.4568788      16.682227    
     57500   2.742403       1.2598644      0              5.3714602      16.946196    
     58000   2.790203       1.2666399      0              5.4499008      16.845247    
     58500   2.686857       1.2119526      0              5.2402702      16.446815    
     59000   2.6872468      1.1722106      0              5.2011126      16.066529    
     59500   2.7327289      1.1052979      0              5.2023897      15.631619    
     60000   2.6801709      1.1388542      0              5.1571475      15.842253    
     60500   2.6995857      1.1576965      0              5.2050979      15.938378    
     61000   2.6790164      1.2040694      0              5.2206319      16.375121    
     61500   2.6662105      1.251957       0              5.24932        16.719298    
     62000   2.6686275      1.1432549      0              5.1442417      15.890621    
     62500   2.6821607      1.1671799      0              5.1884564      16.136357    
     63000   2.6368631      1.0949621      0              5.0483255      15.372466    
     63500   2.5897846      1.1400048      0              5.0227848      15.795099    
     64000   2.5478089      1.1117363      0              4.9315835      15.453328    
     64500   2.586396       1.0931508      0              4.9708505      15.382105    
     65000   2.5299399      1.113169       0              4.9062258      15.382819    
     65500   2.5186527      1.1732875      0              4.9494219      16.05199     
     66000   2.5974277      1.1085856      0              5.0028247      15.458639    
     66500   2.5866214      1.0934881      0              4.9715257      15.44107     
     67000   2.5295526      1.0712429      0              4.8637191      15.079392    
     67500   2.5165592      1.0869918      0              4.8599875      15.07446     
     68000   2.4756859      1.1757352      0              4.8874507      15.986701    
     68500   2.5101487      1.0558134      0              4.819198       14.966887    
     69000   2.4781177      1.0701132      0              4.7854747      15.023125    
     69500   2.4328583      1.0517396      0              4.6992452      14.800956    
     70000   2.4335803      1.0459545      0              4.6945425      14.732781    
     70500   2.4129408      1.0304552      0              4.6480991      14.585004    
     71000   2.4801579      0.96446998     0              4.6828903      14.204494    
     71500   2.3851317      1.0549268      0              4.6308774      14.83191     
     72000   2.3683784      1.0250582      0              4.5758912      14.401779    
     72500   2.3557297      0.99706478     0              4.528934       14.346928    
     73000   2.3629109      0.95739646     0              4.5000321      14.090727    
     73500   2.2927579      1.0154968      0              4.4529543      14.336172    
     74000   2.2836688      1.0133666      0              4.4371971      14.354133    
     74500   2.3052193      0.97195402     0              4.4280945      13.964609    
     75000   2.3126066      0.96142918     0              4.4286453      14.003673    
     75500   2.3362714      0.92436838     0              4.4270643      13.624048    
     76000   2.2298982      0.94307575     0              4.2862898      13.736773    
     76500   2.245423       0.914724       0              4.2812139      13.45874     
     77000   2.1407005      0.93635755     0              4.1458404      13.740417    
     77500   2.1979699      0.90479888     0              4.2001439      13.405569    
     78000   2.2025589      0.91402079     0              4.216246       13.531168    
     78500   2.272912       0.87788637     0              4.2855897      13.101846    
     79000   2.1719804      0.99374805     0              4.2501279      14.10451     
     79500   2.1766616      0.92128399     0              4.1846821      13.535258    
     80000   2.0892682      0.93395384     0              4.0663259      13.677789    
     80500   2.0574219      0.86115341     0              3.9457793      12.822932    
     81000   2.0830801      0.82281233     0              3.9459068      12.389834    
     81500   2.0976974      0.87466171     0              4.0196715      12.953523    
     82000   2.069812       0.91051999     0              4.013722       13.341128    
     82500   2.1317009      0.83298972     0              4.0289798      12.864217    
     83000   2.0486823      0.9022326      0              3.9737555      13.0436      
     83500   2.0344504      0.83766832     0              3.8878539      12.583987    
     84000   1.9939691      0.86967517     0              3.8591685      12.833244    
     84500   2.0480039      0.80234239     0              3.8728483      12.409685    
     85000   2.0225024      0.86296241     0              3.8952347      12.921576    
     85500   1.9765418      0.83045541     0              3.7938204      12.65515     
     86000   1.9145861      0.77940664     0              3.6498835      12.013657    
     86500   1.8847297      0.78472958     0              3.6104437      11.982375    
     87000   1.9046107      0.80841569     0              3.6639368      12.196732    
     87500   1.9076415      0.799          0              3.659065       12.12863     
     88000   1.8249214      0.77065177     0              3.5066973      11.71983     
     88500   1.8780887      0.75457163     0              3.5703291      11.67603     
     89000   1.8349654      0.7827899      0              3.533894       11.949035    
     89500   1.8538988      0.75995488     0              3.5394453      11.911885    
     90000   1.8374762      0.74780334     0              3.5026719      11.643977    
     90500   1.818821       0.77497586     0              3.5018753      11.767407    
     91000   1.8176625      0.76118282     0              3.4863452      11.75906     
     91500   1.8036854      0.77272417     0              3.4769312      11.815492    
     92000   1.8029966      0.73169102     0              3.4348654      11.562274    
     92500   1.7368185      0.75695343     0              3.360909       11.612911    
     93000   1.7560072      0.70496489     0              3.3376895      11.12613     
     93500   1.7304778      0.63445772     0              3.228907       10.510392    
     94000   1.6435121      0.7352536      0              3.199318       11.273882    
     94500   1.6493634      0.74146296     0              3.2143         11.5689      
     95000   1.7117372      0.62399748     0              3.1903495      10.348944    
     95500   1.6897923      0.67715551     0              3.2106063      10.750703    
     96000   1.6891176      0.65827865     0              3.1907179      10.730148    
     96500   1.693343       0.71799541     0              3.2567697      11.1301      
     97000   1.6997365      0.64339028     0              3.1917501      10.554293    
     97500   1.6673857      0.6525117      0              3.152369       10.626332    
     98000   1.6544852      0.65701591     0              3.1375319      10.697998    
     98500   1.6156353      0.6306215      0              3.0528911      10.211518    
     99000   1.5588437      0.63487176     0              2.9719956      10.31493     
     99500   1.5513944      0.64129084     0              2.9672462      10.324886    
    100000   1.5951167      0.60850914     0              3.0000159      10.157706    
    100500   1.5495356      0.60306745     0              2.926236       9.9407073    
    101000   1.520293       0.62243058     0              2.9017566      10.198013    
    101500   1.5393306      0.62210815     0              2.9299766      10.125562    
    102000   1.495767       0.60822801     0              2.850783       9.9280997    
    102500   1.5103704      0.56518368     0              2.8296331      9.5042218    
    103000   1.435          0.57521587     0              2.7266649      9.6762527    
    103500   1.4428902      0.55602572     0              2.7193042      9.4301668    
    104000   1.3886369      0.56749682     0              2.6494351      9.4687692    
    104500   1.4247487      0.54190049     0              2.67798        9.1882806    
    105000   1.3993723      0.54836537     0              2.6463988      9.2837402    
    105500   1.3938932      0.53053907     0              2.620358       9.0869772    
    106000   1.3363301      0.53970223     0              2.5432186      9.1654905    
    106500   1.3412624      0.5108702      0              2.5217814      8.8954405    
    107000   1.3105736      0.52344075     0              2.4883413      8.8707344    
    107500   1.3480411      0.49653494     0              2.5176093      8.8268458    
    108000   1.336883       0.52547113     0              2.5298165      8.8687977    
    108500   1.3627207      0.49020238     0              2.5332854      8.6313391    
    109000   1.3020113      0.46903334     0              2.4210967      8.4350324    
    109500   1.2874021      0.48802689     0              2.4181872      8.554403     
    110000   1.3006603      0.47376581     0              2.4238037      8.3906113    
    110500   1.209461       0.49657011     0              2.3098758      8.5300543    
    111000   1.1995864      0.48284181     0              2.2813428      8.3342555    
    111500   1.1963465      0.44414826     0              2.2377918      8.0031882    
    112000   1.1887705      0.45065794     0              2.232943       8.0758239    
    112500   1.1819017      0.43924538     0              2.2112323      7.9207391    
    113000   1.189171       0.4296746      0              2.2125602      7.9330558    
    113500   1.1973346      0.42607278     0              2.2211977      7.7228218    
    114000   1.1720214      0.42357074     0              2.1807444      7.8277134    
    114500   1.1552154      0.42414505     0              2.156122       7.8433925    
    115000   1.131058       0.41971946     0              2.1154781      7.6790708    
    115500   1.0879009      0.43450049     0              2.065555       7.8475115    
    116000   1.0894459      0.40747604     0              2.040847       7.473248     
    116500   1.0798832      0.39836738     0              2.0174012      7.4545462    
    117000   1.0594549      0.40009145     0              1.9884978      7.3402399    
    117500   1.0454673      0.40483558     0              1.9722708      7.4481645    
    118000   1.0077158      0.37433562     0              1.8851713      7.0561295    
    118500   0.98324192     0.3716943      0              1.845837       7.1007769    
    119000   0.99397801     0.35520467     0              1.8454437      6.8746866    
    119500   0.97555367     0.37663552     0              1.8392515      7.0305774    
    120000   0.97823477     0.3400307      0              1.8066664      6.6913434    
    120500   0.98854718     0.31607577     0              1.7981725      6.3134881    
    121000   0.9442988      0.33907857     0              1.7548351      6.5609577    
    121500   0.93831205     0.33394193     0              1.7407228      6.550166     
    122000   0.92521454     0.32176201     0              1.7089062      6.3904109    
    122500   0.93060996     0.31359119     0              1.7088245      6.303971     
    123000   0.90787216     0.30909171     0              1.670235       6.1976049    
    123500   0.88413375     0.29632724     0              1.6218803      6.1043287    
    124000   0.82500047     0.33223096     0              1.5691274      6.4724487    
    124500   0.81554862     0.29435551     0              1.5170811      5.9072922    
    125000   0.82355248     0.28485955     0              1.5195851      5.8828946    
    125500   0.8070313      0.27436795     0              1.4843238      5.6197518    
    126000   0.78998592     0.27228554     0              1.4566858      5.629476     
    126500   0.76492246     0.27160649     0              1.4184299      5.6892303    
    127000   0.7535682      0.26478438     0              1.3945847      5.5342225    
    127500   0.75590818     0.23363884     0              1.3669475      5.1417916    
    128000   0.72979117     0.2409877      0              1.3351399      5.2663435    
    128500   0.73005368     0.23040451     0              1.3249503      5.022484     
    129000   0.71429942     0.24911009     0              1.3200361      5.3834724    
    129500   0.71055924     0.23185966     0              1.2971781      5.0846262    
    130000   0.69428746     0.21929005     0              1.2602127      4.8981078    
    130500   0.66232888     0.20775567     0              1.2007639      4.7099914    
    131000   0.64571923     0.20422669     0              1.1723326      4.6206445    
    131500   0.62684176     0.1992482      0              1.1390517      4.5956466    
    132000   0.62689772     0.19706546     0              1.1369529      4.5697606    
    132500   0.62451615     0.19921537     0              1.1355322      4.5891571    
    133000   0.59535505     0.1863475      0              1.078944       4.405118     
    133500   0.57971231     0.19773579     0              1.0668797      4.5639718    
    134000   0.55222092     0.15787047     0              0.98579739     3.9542214    
    134500   0.5535016      0.16321067     0              0.99305767     3.9810529    
    135000   0.51927097     0.15058431     0              0.92911044     3.8090506    
    135500   0.51489564     0.16205443     0              0.93402077     3.9215036    
    136000   0.50343517     0.16134408     0              0.91612811     3.9038683    
    136500   0.50420443     0.16242933     0              0.91836668     3.9688751    
    137000   0.47595526     0.13903176     0              0.85261604     3.5474127    
    137500   0.47587175     0.12638473     0              0.83984381     3.2910448    
    138000   0.43694819     0.12947381     0              0.78457605     3.3398242    
    138500   0.43731163     0.12169584     0              0.777343       3.2957624    
    139000   0.43112996     0.11937162     0              0.7657508      3.1813906    
    139500   0.40128863     0.11868465     0              0.72032368     3.1111161    
    140000   0.39782375     0.11238641     0              0.70883066     3.0663901    
    140500   0.36872633     0.10372558     0              0.65654502     2.8755554    
    141000   0.36547313     0.091326426    0              0.63926843     2.6895297    
    141500   0.34303881     0.089232237    0              0.6035392      2.5855597    
    142000   0.33142593     0.088402742    0              0.58529889     2.5822996    
    142500   0.33115253     0.085427167    0              0.58191342     2.5621597    
    143000   0.30119863     0.076991475    0              0.52856882     2.3574656    
    143500   0.2944851      0.069746784    0              0.51125875     2.2316555    
    144000   0.28365865     0.067564213    0              0.49284443     2.1951773    
    144500   0.25004637     0.071898869    0              0.44678528     2.1801727    
    145000   0.24308228     0.06458955     0              0.42903494     2.0722928    
    145500   0.2263361      0.048632376    0              0.38797075     1.7372787    
    146000   0.21169325     0.057235259    0              0.37462008     1.922067     
    146500   0.19743753     0.045614631    0              0.34162632     1.6373145    
    147000   0.18554297     0.042489803    0              0.32066836     1.5491593    
    147500   0.17301332     0.035879313    0              0.29527257     1.4365003    
    148000   0.15782807     0.030428591    0              0.2670551      1.2505957    
    148500   0.14630072     0.029482028    0              0.24882595     1.2472487    
    149000   0.13034778     0.025221198    0              0.2206474      1.1065627    
    149500   0.1147994      0.023099718    0              0.19521474     1.051156     
    150000   0.10195499     0.018176439    0              0.17103425     0.8778492    
Loop time of 5.11422 on 64 procs for 100000 steps with 2048 atoms

Performance: 16894080.149 tau/day, 19553.334 timesteps/s, 40.045 Matom-step/s
99.6% CPU use with 64 MPI tasks x 1 OpenMP threads

MPI task timing breakdown:
Section |  min time  |  avg time  |  max time  |%varavg| %total
---------------------------------------------------------------
Pair    | 0.11674    | 0.12922    | 0.14242    |   1.9 |  2.53
Neigh   | 0.43566    | 0.44191    | 0.45393    |   0.5 |  8.64
Comm    | 2.4943     | 2.7984     | 3.1582     |  11.9 | 54.72
Output  | 0.092932   | 0.093081   | 0.094809   |   0.1 |  1.82
Modify  | 0.439      | 0.98761    | 1.3265     |  23.7 | 19.31
Other   |            | 0.664      |            |       | 12.98

Nlocal:             32 ave          37 max          27 min
Histogram: 3 2 3 8 7 15 10 7 7 2
Nghost:        150.922 ave         158 max         143 min
Histogram: 4 2 8 4 10 7 7 10 10 2
Neighs:        143.453 ave         177 max         112 min
Histogram: 4 3 3 10 15 7 13 5 3 1

Total # of neighbors = 9181
Ave neighs/atom = 4.4829102
Neighbor list builds = 28334
Dangerous builds = 0
Total wall time: 0:00:07
LAMMPS (15 Sep 2022)
OMP_NUM_THREADS environment is not set. Defaulting to 1 thread. (src/comm.cpp:98)
  using 1 OpenMP thread(s) per MPI task
Lattice spacing in x,y,z = 1.5874011 1.5874011 1.5874011
Created orthogonal box = (0 0 0) to (12.699208 12.699208 12.699208)
  4 by 4 by 4 MPI processor grid
Created 2048 atoms
  using lattice units in orthogonal box = (0 0 0) to (12.699208 12.699208 12.699208)
  create_atoms CPU = 0.001 seconds
Generated 0 of 0 mixed pair_coeff terms from geometric mixing rule
Neighbor list info ...
  update: every = 1 steps, delay = 0 steps, check = yes
  max neighbors/atom: 2000, page size: 100000
  master list distance cutoff = 1.3
  ghost atom cutoff = 1.3
  binsize = 0.65, bins = 20 20 20
  1 neighbor lists, perpetual/occasional/extra = 1 0 0
  (1) pair lj/cut, perpetual
      attributes: half, newton on
      pair build: half/bin/atomonly/newton
      stencil: half/bin/3d
      bin: standard
Setting up Verlet run ...
  Unit style    : lj
  Current step  : 0
  Time step     : 0.01
Per MPI rank memory allocation (min/avg/max) = 3.063 | 3.064 | 3.064 Mbytes
   Step          Temp          E_pair         E_mol          TotEng         Press     
         0   3              0              0              4.4978027      2.9985352    
       500   3.0847526      1.9950188      0              6.6198883      26.765589    
      1000   3.0583407      1.8805304      0              6.4658016      25.996464    
      1500   3.0307219      1.8799997      0              6.4238628      25.853241    
      2000   2.9705712      1.8937029      0              6.347384       26.040164    
      2500   3.0682331      1.8617454      0              6.4618477      25.623689    
      3000   2.9306883      1.8172826      0              6.2111686      25.227414    
      3500   2.9792092      1.7809108      0              6.2475426      25.061815    
      4000   2.9686137      1.875217       0              6.3259632      25.884795    
      4500   3.0362048      1.8351899      0              6.3872733      25.544869    
      5000   3.0847592      1.7191626      0              6.344042       24.414429    
      5500   3.0182335      1.9136658      0              6.4388055      26.484792    
      6000   3.0059655      1.8002832      0              6.3070299      25.065473    
      6500   3.1269617      1.8239122      0              6.5120645      25.557677    
      7000   3.0288808      1.7413242      0              6.2824269      24.654788    
      7500   2.9811225      1.7815551      0              6.2510554      25.054848    
      8000   2.9453308      1.862954       0              6.2787929      25.56847     
      8500   2.9518813      1.8057018      0              6.2313617      25.046908    
      9000   2.9953361      1.8552552      0              6.3460656      25.729569    
      9500   3.0846336      1.7948346      0              6.4195258      25.196454    
     10000   3.0217749      1.8029         0              6.3333491      25.045719    
     10500   3.102666       1.7480379      0              6.3997644      24.690859    
     11000   2.9957055      1.8481195      0              6.3394836      25.669012    
     11500   3.0245302      1.7855089      0              6.320089       24.879925    
     12000   3.1386504      1.8356177      0              6.5412944      25.745056    
     12500   3.0598366      1.7847879      0              6.3723017      25.131035    
     13000   3.0739857      1.8216444      0              6.4303714      25.506367    
     13500   3.0596046      1.6994538      0              6.2866198      24.460802    
     14000   2.970037       1.9420511      0              6.3949313      26.692229    
     14500   2.9932403      1.808882       0              6.29655        25.40193     
     15000   3.0363792      1.7487816      0              6.3011266      24.65424     
     15500   3.0490137      1.8662381      0              6.4375254      25.773081    
     16000   2.8901786      1.7496875      0              6.0828386      24.59832     
     16500   2.9920376      1.7944526      0              6.2803176      25.004542    
     17000   2.9981464      1.8164054      0              6.3114292      25.337911    
     17500   2.9983269      1.7715348      0              6.2668291      24.677553    
     18000   2.9794919      1.7977901      0              6.2648457      24.795068    
     18500   3.0219612      1.7843595      0              6.315088       25.157945    
     19000   2.9341398      1.7522214      0              6.151282       24.478499    
     19500   2.9851164      1.8144774      0              6.2899656      25.248909    
     20000   2.9703462      1.9295444      0              6.3828881      26.256635    
     20500   3.0835803      1.7350705      0              6.3581825      24.82615     
     21000   3.0229697      1.8582756      0              6.3905161      25.542818    
     21500   2.9936289      1.7785334      0              6.2667841      25.071233    
     22000   2.9922945      1.7618585      0              6.2481087      24.88532     
     22500   2.9199268      1.882578       0              6.2603295      25.830912    
     23000   3.0068465      1.7470978      0              6.2551653      24.742424    
     23500   2.9487141      1.7983337      0              6.2192452      24.889604    
     24000   3.0291635      1.7710215      0              6.3125482      25.062947    
     24500   2.9275203      1.9361566      0              6.3252929      25.935568    
     25000   2.9368534      1.91795        0              6.321079       26.253587    
     25500   3.1045397      1.833939       0              6.4884747      25.674266    
     26000   2.9917745      1.8285719      0              6.3140424      25.540672    
     26500   3.0574819      1.9903556      0              6.5743392      26.640654    
     27000   2.9774794      1.8089009      0              6.2729393      25.129929    
     27500   3.0505619      1.8058614      0              6.3794701      25.278698    
     28000   3.1419577      1.7910348      0              6.5016701      25.099587    
     28500   2.9697049      1.7944666      0              6.2468488      25.147365    
     29000   3.0391896      1.8209122      0              6.3774706      25.594435    
     29500   2.9366277      1.8302838      0              6.2330744      25.529871    
     30000   2.9681427      1.871113       0              6.3211531      25.755845    
     30500   3.0931453      1.8238193      0              6.4612718      25.495739    
     31000   2.9815605      1.7659779      0              6.2361349      25.084107    
     31500   2.9847694      1.7688615      0              6.2438295      25.054219    
     32000   2.928045       1.8643781      0              6.254301       25.703899    
     32500   2.9161035      1.8218345      0              6.1938539      25.376428    
     33000   2.972253       1.837139       0              6.2933415      25.220957    
     33500   3.007953       1.7925766      0              6.302303       25.246702    
     34000   2.9859685      1.7733016      0              6.2500674      24.868901    
     34500   2.9497648      1.8205078      0              6.2429945      25.527778    
     35000   2.9432503      1.8535154      0              6.2662352      25.608128    
     35500   2.9117545      1.8598088      0              6.2253079      25.640907    
     36000   3.0197277      1.7808404      0              6.3082202      24.832129    
     36500   2.9735469      1.7998913      0              6.2580338      25.254311    
     37000   2.95653        1.8389058      0              6.2715353      25.48676     
     37500   2.9754198      1.7118731      0              6.1728235      24.392603    
     38000   3.0339188      1.7903255      0              6.3389816      25.237692    
     38500   3.0886679      1.9107727      0              6.5415124      26.052425    
     39000   2.9749451      1.7102658      0              6.1705045      24.522888    
     39500   3.0211289      1.7707396      0              6.3002203      24.759185    
     40000   2.9726267      1.7519848      0              6.2087475      24.919193    
     40500   2.9909461      1.7613044      0              6.2455329      24.95091     
     41000   2.9872778      1.7681539      0              6.2468827      24.829847    
     41500   3.0468078      1.7815262      0              6.3495063      25.060398    
     42000   3.0831088      1.8209299      0              6.443335       25.401523    
     42500   3.0585853      1.8191889      0              6.4048267      25.176072    
     43000   3.065716       1.8927386      0              6.4890671      26.25195     
     43500   3.0630574      1.7241008      0              6.3164434      24.68484     
     44000   3.1323638      1.8348653      0              6.5311168      25.569333    
     44500   2.9757318      1.7828747      0              6.2442929      25.04215     
     45000   2.9728742      1.7607544      0              6.2178883      24.966291    
     45500   3.047458       1.8427618      0              6.4117168      25.444937    
     46000   3.0507561      1.8265116      0              6.4004112      25.623785    
     46500   3.0903909      1.8936261      0              6.526949       25.990805    
     47000   3.0333647      1.7629922      0              6.3108175      24.893894    
     47500   2.9996538      1.7864057      0              6.2836894      24.932374    
     48000   3.006917       1.8003544      0              6.3085276      25.207295    
     48500   3.1363922      1.8489746      0              6.5512657      25.497841    
     49000   2.9694291      1.7833423      0              6.2353111      24.813475    
     49500   3.0317984      1.925322       0              6.470799       26.424642    
     50000   2.9981333      1.789428       0              6.2844321      25.273638    
Loop time of 2.83861 on 64 procs for 50000 steps with 2048 atoms

Performance: 15218718.978 tau/day, 17614.258 timesteps/s, 36.074 Matom-step/s
99.5% CPU use with 64 MPI tasks x 1 OpenMP threads

MPI task timing breakdown:
Section |  min time  |  avg time  |  max time  |%varavg| %total
---------------------------------------------------------------
Pair    | 0.075553   | 0.082942   | 0.089332   |   1.4 |  2.92
Neigh   | 0.33354    | 0.33944    | 0.35186    |   0.5 | 11.96
Comm    | 1.4106     | 1.5724     | 1.7628     |   7.7 | 55.39
Output  | 0.003762   | 0.0038677  | 0.0059023  |   0.4 |  0.14
Modify  | 0.23747    | 0.4999     | 0.64761    |  15.8 | 17.61
Other   |            | 0.3401     |            |       | 11.98

Nlocal:             32 ave          37 max          26 min
Histogram: 4 2 2 7 12 13 9 2 6 7
Nghost:        159.844 ave         170 max         149 min
Histogram: 4 3 5 8 9 10 8 10 5 2
Neighs:        153.172 ave         198 max         120 min
Histogram: 1 10 7 11 10 14 4 5 0 2

Total # of neighbors = 9803
Ave neighs/atom = 4.7866211
Neighbor list builds = 20222
Dangerous builds = 0
Generated 0 of 0 mixed pair_coeff terms from geometric mixing rule
Setting up Verlet run ...
  Unit style    : lj
  Current step  : 50000
  Time step     : 0.01
Per MPI rank memory allocation (min/avg/max) = 3.105 | 3.106 | 3.106 Mbytes
   Step          Temp          E_pair         E_mol          TotEng         Press     
     50000   2.9981333      1.789428       0              6.2844321      25.273638    
     50500   3.0824574      1.765585       0              6.3870134      24.911508    
     51000   2.9459749      1.8591963      0              6.2760009      25.576027    
     51500   2.9315623      1.7480226      0              6.143219       24.544889    
     52000   2.9391193      1.7077133      0              6.1142395      24.271229    
     52500   2.9519993      1.6476411      0              6.073478       23.795092    
     53000   2.8913103      1.7231149      0              6.0579626      24.460447    
     53500   2.9577014      1.7174646      0              6.1518504      24.599391    
     54000   2.9235606      1.7744128      0              6.1576125      24.71441     
     54500   2.8264005      1.8073832      0              6.0449138      25.026717    
     55000   2.8644437      1.6493745      0              5.9439422      23.711097    
     55500   2.8134739      1.7442587      0              5.9624088      24.525434    
     56000   2.8035474      1.7150761      0              5.9183438      24.201922    
     56500   2.8229621      1.7073191      0              5.9396947      24.393037    
     57000   2.7819466      1.6853175      0              5.8561999      24.13274     
     57500   2.8138921      1.7593709      0              5.9781481      24.552018    
     58000   2.7403365      1.5802947      0              5.6887924      23.168948    
     58500   2.7992204      1.5782948      0              5.7750753      23.13356     
     59000   2.7640514      1.5743854      0              5.718438       22.778089    
     59500   2.6919122      1.6473795      0              5.6832761      23.495421    
     60000   2.7564939      1.6915509      0              5.8242729      24.126936    
     60500   2.6989987      1.6083463      0              5.6548675      23.202051    
     61000   2.7121179      1.6969597      0              5.7631501      24.073286    
     61500   2.7704588      1.614393       0              5.7680521      23.315507    
     62000   2.6161577      1.5937436      0              5.5160641      23.19154     
     62500   2.6069744      1.5852847      0              5.493837       23.018225    
     63000   2.6354805      1.4843237      0              5.4356143      22.221591    
     63500   2.5420069      1.6130252      0              5.4241737      22.994837    
     64000   2.561512       1.5262328      0              5.3666248      22.212067    
     64500   2.5218757      1.5811038      0              5.3620702      22.869927    
     65000   2.5110125      1.5177291      0              5.2824087      22.223041    
     65500   2.5132327      1.5280616      0              5.2960699      22.467606    
     66000   2.4741639      1.5239013      0              5.2333351      22.236659    
     66500   2.4840172      1.4962648      0              5.2204712      22.142491    
     67000   2.567367       1.3589047      0              5.2080748      20.747153    
     67500   2.4528727      1.4215319      0              5.0990444      21.118711    
     68000   2.4838959      1.4533446      0              5.1773693      21.540376    
     68500   2.4517849      1.4657499      0              5.1416314      21.655885    
     69000   2.4756258      1.4699937      0              5.1816192      21.727787    
     69500   2.4220022      1.4101631      0              5.0413924      21.284167    
     70000   2.359826       1.4394662      0              4.9774768      21.354645    
     70500   2.4149411      1.3294594      0              4.9501023      20.449267    
     71000   2.3698779      1.3515345      0              4.9046156      20.546333    
     71500   2.3986652      1.3390439      0              4.9352848      20.436482    
     72000   2.3596874      1.3829665      0              4.9207694      20.872013    
     72500   2.3995828      1.327693       0              4.9253097      20.323016    
     73000   2.3446495      1.3488841      0              4.8641411      20.463087    
     73500   2.3146159      1.4055708      0              4.8757994      20.887901    
     74000   2.2983035      1.440005       0              4.8857769      21.276898    
     74500   2.316366       1.3180692      0              4.7909217      20.164114    
     75000   2.3232329      1.2317536      0              4.7149015      19.35974     
     75500   2.2516459      1.2993239      0              4.6751435      19.990999    
     76000   2.211455       1.3219562      0              4.637519       19.906227    
     76500   2.2120188      1.2475933      0              4.5640014      19.442855    
     77000   2.1960914      1.3201511      0              4.6126797      20.216229    
     77500   2.2003161      1.2953917      0              4.5942543      19.845671    
     78000   2.1257372      1.3008947      0              4.4879435      19.873585    
     78500   2.1239392      1.3054756      0              4.4898288      20.069285    
     79000   2.1089216      1.2342632      0              4.396101       19.302113    
     79500   2.1046304      1.310832       0              4.4662362      19.93165     
     80000   2.1634313      1.2479219      0              4.4914844      19.330677    
     80500   2.1300942      1.2088982      0              4.4024794      18.849407    
     81000   2.1044689      1.312376       0              4.4675381      19.791242    
     81500   2.0901359      1.1697047      0              4.3033778      18.459653    
     82000   2.0509577      1.2385489      0              4.3134833      19.239001    
     82500   2.0409193      1.1694194      0              4.2293035      18.389305    
     83000   1.9930543      1.160387       0              4.1485088      18.430917    
     83500   2.0081311      1.128242       0              4.1389679      18.062561    
     84000   1.9751005      1.1109563      0              4.0721604      17.788262    
     84500   2.0097062      1.0717866      0              4.084874       17.379204    
     85000   1.9472261      1.1142076      0              4.0336206      17.794476    
     85500   1.9483924      1.138341       0              4.0595026      18.258284    
     86000   1.944902       1.0422859      0              3.9582144      17.177026    
     86500   1.9379913      1.1053032      0              4.0108708      17.855094    
     87000   1.9380437      1.1313563      0              4.0370023      17.978978    
     87500   2.0015245      1.0739653      0              4.0747861      17.418829    
     88000   1.8901081      1.1448785      0              3.9786563      17.922355    
     88500   1.9457822      1.1101918      0              4.02744        17.722141    
     89000   1.8779202      1.0914254      0              3.9069303      17.473784    
     89500   1.9164661      1.0995595      0              3.9728551      17.49339     
     90000   1.8345368      1.0069716      0              3.7574332      16.564198    
     90500   1.7801009      1.0419351      0              3.7107827      16.90753     
     91000   1.8277162      0.98051369     0              3.7207493      16.396857    
     91500   1.8025835      0.99356305     0              3.696118       16.42799     
     92000   1.7805273      0.97876744     0              3.6482543      16.240759    
     92500   1.7575013      0.9686372      0              3.6036019      16.265752    
     93000   1.7029653      1.0044242      0              3.5576248      16.5502      
     93500   1.6953365      0.97767546     0              3.5194385      16.3889      
     94000   1.7151163      0.98398755     0              3.5554058      16.200995    
     94500   1.7105647      0.92241927     0              3.4870134      15.62041     
     95000   1.683718       0.96400028     0              3.4883441      16.124726    
     95500   1.6999974      0.93998311     0              3.4887341      15.675881    
     96000   1.6859719      0.95964807     0              3.4873711      15.932148    
     96500   1.6664994      0.92985199     0              3.4283804      15.790055    
     97000   1.6701792      0.9202533      0              3.4242988      15.570313    
     97500   1.631918       0.87573189     0              3.3224136      15.118206    
     98000   1.5831151      0.94789843     0              3.3214116      15.834932    
[...]
99.5% CPU use with 64 MPI tasks x 1 OpenMP threads

MPI task timing breakdown:
Section |  min time  |  avg time  |  max time  |%varavg| %total
---------------------------------------------------------------
Pair    | 0.075617   | 0.083269   | 0.099997   |   1.4 |  2.89
Neigh   | 0.33493    | 0.34028    | 0.37887    |   1.0 | 11.82
Comm    | 1.441      | 1.5846     | 1.7743     |   8.0 | 55.03
Output  | 0.0039113  | 0.004038   | 0.0060218  |   0.4 |  0.14
Modify  | 0.25652    | 0.5279     | 0.67576    |  15.7 | 18.33
Other   |            | 0.3396     |            |       | 11.79

Nlocal:             32 ave          37 max          26 min
Histogram: 4 2 2 7 12 13 9 2 6 7
Nghost:        159.844 ave         170 max         149 min
Histogram: 4 3 5 8 9 10 8 10 5 2
Neighs:        153.172 ave         198 max         120 min
Histogram: 1 10 7 11 10 14 4 5 0 2

Total # of neighbors = 9803
Ave neighs/atom = 4.7866211
Neighbor list builds = 20222
Dangerous builds = 0
Generated 0 of 0 mixed pair_coeff terms from geometric mixing rule
Setting up Verlet run ...
  Unit style    : lj
  Current step  : 50000
  Time step     : 0.01
Per MPI rank memory allocation (min/avg/max) = 3.105 | 3.106 | 3.106 Mbytes
   Step          Temp          E_pair         E_mol          TotEng         Press     
     50000   2.9981333      1.789428       0              6.2844321      25.273638    
     50500   3.0824574      1.765585       0              6.3870134      24.911508    
     51000   2.9459749      1.8591963      0              6.2760009      25.576027    
     51500   2.9315623      1.7480226      0              6.143219       24.544889    
     52000   2.9391193      1.7077133      0              6.1142395      24.271229    
     52500   2.9519993      1.6476411      0              6.073478       23.795092    
     53000   2.8913103      1.7231149      0              6.0579626      24.460447    
     53500   2.9577014      1.7174646      0              6.1518504      24.599391    
     54000   2.9235606      1.7744128      0              6.1576125      24.71441     
     54500   2.8264005      1.8073832      0              6.0449138      25.026717    
     55000   2.8644437      1.6493745      0              5.9439422      23.711097    
     55500   2.8134739      1.7442587      0              5.9624088      24.525434    
     56000   2.8035474      1.7150761      0              5.9183438      24.201922    
     56500   2.8229621      1.7073191      0              5.9396947      24.393037    
     57000   2.7819466      1.6853175      0              5.8561999      24.13274     
     57500   2.8138921      1.7593709      0              5.9781481      24.552018    
     58000   2.7403365      1.5802947      0              5.6887924      23.168948    
     58500   2.7992204      1.5782948      0              5.7750753      23.13356     
     59000   2.7640514      1.5743854      0              5.718438       22.778089    
     59500   2.6919122      1.6473795      0              5.6832761      23.495421    
     60000   2.7564939      1.6915509      0              5.8242729      24.126936    
     60500   2.6989987      1.6083463      0              5.6548675      23.202051    
     61000   2.7121179      1.6969597      0              5.7631501      24.073286    
     61500   2.7704588      1.614393       0              5.7680521      23.315507    
     62000   2.6161577      1.5937436      0              5.5160641      23.19154     
     62500   2.6069744      1.5852847      0              5.493837       23.018225    
     63000   2.6354805      1.4843237      0              5.4356143      22.221591    
     63500   2.5420069      1.6130252      0              5.4241737      22.994837    
     64000   2.561512       1.5262328      0              5.3666248      22.212067    
     64500   2.5218757      1.5811038      0              5.3620702      22.869927    
     65000   2.5110125      1.5177291      0              5.2824087      22.223041    
     65500   2.5132327      1.5280616      0              5.2960699      22.467606    
     66000   2.4741639      1.5239013      0              5.2333351      22.236659    
     66500   2.4840172      1.4962648      0              5.2204712      22.142491    
     67000   2.567367       1.3589047      0              5.2080748      20.747153    
     67500   2.4528727      1.4215319      0              5.0990444      21.118711    
     68000   2.4838959      1.4533446      0              5.1773693      21.540376    
     68500   2.4517849      1.4657499      0              5.1416314      21.655885    
     69000   2.4756258      1.4699937      0              5.1816192      21.727787    
     69500   2.4220022      1.4101631      0              5.0413924      21.284167    
     70000   2.359826       1.4394662      0              4.9774768      21.354645    
     70500   2.4149411      1.3294594      0              4.9501023      20.449267    
     71000   2.3698779      1.3515345      0              4.9046156      20.546333    
     71500   2.3986652      1.3390439      0              4.9352848      20.436482    
     72000   2.3596874      1.3829665      0              4.9207694      20.872013    
     72500   2.3995828      1.327693       0              4.9253097      20.323016    
     73000   2.3446495      1.3488841      0              4.8641411      20.463087    
     73500   2.3146159      1.4055708      0              4.8757994      20.887901    
     74000   2.2983035      1.440005       0              4.8857769      21.276898    
     74500   2.316366       1.3180692      0              4.7909217      20.164114    
     75000   2.3232329      1.2317536      0              4.7149015      19.35974     
     75500   2.2516459      1.2993239      0              4.6751435      19.990999    
     76000   2.211455       1.3219562      0              4.637519       19.906227    
     76500   2.2120188      1.2475933      0              4.5640014      19.442855    
     77000   2.1960914      1.3201511      0              4.6126797      20.216229    
     77500   2.2003161      1.2953917      0              4.5942543      19.845671    
     78000   2.1257372      1.3008947      0              4.4879435      19.873585    
     78500   2.1239392      1.3054756      0              4.4898288      20.069285    
     79000   2.1089216      1.2342632      0              4.396101       19.302113    
     79500   2.1046304      1.310832       0              4.4662362      19.93165     
     80000   2.1634313      1.2479219      0              4.4914844      19.330677    
     80500   2.1300942      1.2088982      0              4.4024794      18.849407    
     81000   2.1044689      1.312376       0              4.4675381      19.791242    
     81500   2.0901359      1.1697047      0              4.3033778      18.459653    
     82000   2.0509577      1.2385489      0              4.3134833      19.239001    
     82500   2.0409193      1.1694194      0              4.2293035      18.389305    
     83000   1.9930543      1.160387       0              4.1485088      18.430917    
     83500   2.0081311      1.128242       0              4.1389679      18.062561    
     84000   1.9751005      1.1109563      0              4.0721604      17.788262    
     84500   2.0097062      1.0717866      0              4.084874       17.379204    
     85000   1.9472261      1.1142076      0              4.0336206      17.794476    
     85500   1.9483924      1.138341       0              4.0595026      18.258284    
     86000   1.944902       1.0422859      0              3.9582144      17.177026    
     86500   1.9379913      1.1053032      0              4.0108708      17.855094    
     87000   1.9380437      1.1313563      0              4.0370023      17.978978    
     87500   2.0015245      1.0739653      0              4.0747861      17.418829    
     88000   1.8901081      1.1448785      0              3.9786563      17.922355    
     88500   1.9457822      1.1101918      0              4.02744        17.722141    
     89000   1.8779202      1.0914254      0              3.9069303      17.473784    
     89500   1.9164661      1.0995595      0              3.9728551      17.49339     
     90000   1.8345368      1.0069716      0              3.7574332      16.564198    
     90500   1.7801009      1.0419351      0              3.7107827      16.90753     
     91000   1.8277162      0.98051369     0              3.7207493      16.396857    
     91500   1.8025835      0.99356305     0              3.696118       16.42799     
     92000   1.7805273      0.97876744     0              3.6482543      16.240759    
     92500   1.7575013      0.9686372      0              3.6036019      16.265752    
     93000   1.7029653      1.0044242      0              3.5576248      16.5502      
     93500   1.6953365      0.97767546     0              3.5194385      16.3889      
     94000   1.7151163      0.98398755     0              3.5554058      16.200995    
     94500   1.7105647      0.92241927     0              3.4870134      15.62041     
     95000   1.683718       0.96400028     0              3.4883441      16.124726    
     95500   1.6999974      0.93998311     0              3.4887341      15.675881    
     96000   1.6859719      0.95964807     0              3.4873711      15.932148    
     96500   1.6664994      0.92985199     0              3.4283804      15.790055    
     97000   1.6701792      0.9202533      0              3.4242988      15.570313    
     97500   1.631918       0.87573189     0              3.3224136      15.118206    
     98000   1.5831151      0.94789843     0              3.3214116      15.834932    
     98500   1.5784157      0.88081389     0              3.2472814      15.209394    
     99000   1.5720988      0.8831681      0              3.2401648      15.060176    
     99500   1.5315635      0.89092839     0              3.1871518      15.209783    
    100000   1.5428547      0.87101272     0              3.1841648      14.89062     
    100500   1.5513974      0.85260899     0              3.1785689      14.796228    
    101000   1.5033745      0.84464326     0              3.0986039      14.616929    
    101500   1.4807228      0.84551063     0              3.0655103      14.54618     
    102000   1.487788       0.79084964     0              3.0214419      14.022567    
    102500   1.4504102      0.82219346     0              2.9967464      14.303388    
    103000   1.4381486      0.85058443     0              3.006754       14.586841    
    103500   1.4485376      0.76542786     0              2.9371734      13.765458    
    104000   1.4321203      0.81627962     0              2.9634111      14.206374    
    104500   1.451597       0.82628776     0              3.0026201      14.318887    
    105000   1.4014663      0.73945197     0              2.8406249      13.471079    
    105500   1.3879195      0.74493372     0              2.8257965      13.539565    
    106000   1.3400177      0.72968674     0              2.7387318      13.132611    
    106500   1.359816       0.73905809     0              2.7777861      13.371841    
    107000   1.3618663      0.7479268      0              2.7897288      13.463533    
    107500   1.3975212      0.7446261      0              2.8398843      13.356169    
    108000   1.3349146      0.69550648     0              2.6969007      12.788403    
    108500   1.3202137      0.69575164     0              2.6751052      12.685055    
    109000   1.312556       0.69923062     0              2.6671032      12.967755    
    109500   1.2756019      0.72595881     0              2.6384273      13.119665    
    110000   1.2901915      0.6693368      0              2.6036791      12.517906    
    110500   1.2949486      0.63122505     0              2.5726995      12.023488    
    111000   1.2389558      0.67916177     0              2.5366881      12.541882    
    111500   1.2129863      0.64515081     0              2.4637418      12.063206    
    112000   1.1916159      0.60236319     0              2.3889143      11.694021    
    112500   1.1966853      0.61150101     0              2.4056525      11.746277    
    113000   1.1623818      0.59369709     0              2.3364184      11.476122    
    113500   1.1534441      0.60698809     0              2.3363094      11.463167    
    114000   1.108567       0.60475858     0              2.2667972      11.418293    
    114500   1.130548       0.57165624     0              2.2666502      11.253229    
    115000   1.109954       0.56204717     0              2.2261653      10.94343     
    115500   1.0878152      0.57326192     0              2.2041879      11.136835    
    116000   1.0821417      0.53561197     0              2.158032       10.685172    
    116500   1.0761992      0.53931028     0              2.1528209      10.797832    
    117000   1.0727841      0.54714341     0              2.1555339      10.912939    
    117500   1.0679832      0.52093967     0              2.1221323      10.436332    
    118000   1.0276478      0.52378378     0              2.0645028      10.401062    
    118500   0.98943582     0.51817187     0              2.0016009      10.365755    
    119000   0.98586156     0.49770227     0              1.9757725      10.14837     
    119500   0.97478792     0.47696309     0              1.938431       9.9880837    
    120000   0.96414221     0.47792471     0              1.9234319      9.7959542    
    120500   0.94790092     0.45959729     0              1.8807544      9.6450747    
    121000   0.93761224     0.45206633     0              1.857798       9.5448785    
    121500   0.90689536     0.47147087     0              1.8311497      9.6545902    
    122000   0.93272605     0.43164599     0              1.8300519      9.2163053    
    122500   0.90264273     0.45182711     0              1.8051301      9.484868     
    123000   0.89669684     0.45459984     0              1.7989884      9.4530753    
    123500   0.88470037     0.43794363     0              1.7643462      9.2228783    
    124000   0.84797375     0.40998015     0              1.6813197      8.8488819    
    124500   0.81779063     0.4082233      0              1.6343103      8.7490537    
    125000   0.80670772     0.40901        0              1.6184807      8.7376403    
    125500   0.81435629     0.37764479     0              1.5985828      8.4330608    
    126000   0.81013771     0.3780675      0              1.5926807      8.2706557    
    126500   0.78784041     0.38948197     0              1.5706656      8.5896198    
    127000   0.77520862     0.39639195     0              1.5586371      8.57346      
    127500   0.76326403     0.3666736      0              1.5110106      8.2838425    
    128000   0.77408482     0.3647533      0              1.5253136      8.2377602    
    128500   0.72787855     0.3308012      0              1.4220859      7.6523388    
    129000   0.71010432     0.33019676     0              1.3948331      7.5987134    
    129500   0.71275476     0.3158452      0              1.3844553      7.4310365    
    130000   0.67969276     0.31943144     0              1.3384728      7.3855498    
    130500   0.68619389     0.319334       0              1.3481223      7.449976     
    131000   0.62604445     0.31633096     0              1.2549391      7.2103178    
    131500   0.6410683      0.28706908     0              1.248202       6.9857476    
    132000   0.62864695     0.27708294     0              1.2195929      6.8179042    
    132500   0.6048379      0.27299093     0              1.1798048      6.5802819    
    133000   0.58125213     0.27112077     0              1.1425732      6.5631267    
    133500   0.57816594     0.26638927     0              1.1332147      6.5468999    
    134000   0.56693373     0.24360777     0              1.0935931      6.1972315    
    134500   0.54928712     0.24660946     0              1.0701378      6.2205805    
    135000   0.53333322     0.2344616      0              1.0340708      5.9924232    
    135500   0.52267274     0.22361903     0              1.0072453      5.7675567    
    136000   0.50897544     0.23696744     0              1.0000578      6.0545907    
    136500   0.4858206      0.21164029     0              0.94001537     5.5912874    
    137000   0.47309762     0.20279745     0              0.91209737     5.4598176    
    137500   0.4652483      0.18343753     0              0.88096922     5.0965146    
    138000   0.44420491     0.18433987     0              0.85032189     5.1057453    
    138500   0.44205657     0.16011081     0              0.82287189     4.6506096    
    139000   0.41350954     0.165488       0              0.78544945     4.7630018    
    139500   0.40365067     0.16317522     0              0.76835559     4.7123273    
    140000   0.39248232     0.14080392     0              0.72923994     4.3271956    
    140500   0.36982538     0.15758235     0              0.71204955     4.6287008    
    141000   0.37173868     0.15299493     0              0.71033069     4.4424049    
    141500   0.34318474     0.13241681     0              0.64694256     4.0150428    
    142000   0.33624148     0.13018115     0              0.63429709     3.9888079    
    142500   0.30827197     0.12037566     0              0.58255783     3.8054676    
    143000   0.3066438      0.10672675     0              0.56646787     3.5153256    
    143500   0.27736552     0.11108093     0              0.52692607     3.6093789    
    144000   0.27320865     0.10064082     0              0.5102537      3.3692732    
    144500   0.2656855      0.092358895    0              0.49069256     3.1878308    
    145000   0.24588742     0.080957466    0              0.4496085      2.9106472    
    145500   0.23694887     0.080142374    0              0.43539213     2.9239845    
    146000   0.2136777      0.072359326    0              0.39271938     2.7029052    
    146500   0.20330073     0.070089736    0              0.37489193     2.6519335    
    147000   0.18363581     0.060348524    0              0.33566775     2.3572666    
    147500   0.17285487     0.053556462    0              0.31271217     2.1990371    
    148000   0.15791848     0.049628345    0              0.2863904      2.0627296    
    148500   0.14591304     0.042315369    0              0.26107805     1.8566491    
    149000   0.13048133     0.036746749    0              0.23237317     1.7335938    
    149500   0.11510339     0.033202804    0              0.20577358     1.5968404    
    150000   0.10104065     0.027300201    0              0.17878717     1.3880768    
Loop time of 5.22531 on 64 procs for 100000 steps with 2048 atoms

Performance: 16534893.379 tau/day, 19137.608 timesteps/s, 39.194 Matom-step/s
99.6% CPU use with 64 MPI tasks x 1 OpenMP threads

MPI task timing breakdown:
Section |  min time  |  avg time  |  max time  |%varavg| %total
---------------------------------------------------------------
Pair    | 0.13765    | 0.15165    | 0.18275    |   2.0 |  2.90
Neigh   | 0.46813    | 0.47614    | 0.5313     |   1.1 |  9.11
Comm    | 2.5129     | 2.8181     | 3.195      |  12.2 | 53.93
Output  | 0.12907    | 0.12919    | 0.131      |   0.1 |  2.47
Modify  | 0.42073    | 0.97441    | 1.2969     |  24.0 | 18.65
Other   |            | 0.6758     |            |       | 12.93

Nlocal:             32 ave          36 max          27 min
Histogram: 2 2 6 6 10 9 11 9 7 2
Nghost:        161.203 ave         174 max         152 min
Histogram: 2 5 12 12 10 14 3 2 2 2
Neighs:        163.938 ave         195 max         132 min
Histogram: 3 3 4 10 9 11 13 7 2 2

Total # of neighbors = 10492
Ave neighs/atom = 5.1230469
Neighbor list builds = 28220
Dangerous builds = 0
Total wall time: 0:00:08
